ITEM: TIMESTEP
0
ITEM: NUMBER OF ATOMS
4000
ITEM: BOX BOUNDS pp pp pp
0.0 35.49612
0.0 35.49612
0.0 35.49612
ITEM: ATOMS id type x y z
267 2 0.0 0.0 0.0
517 0 1.77481 1.77481 0.0
768 1 1.77481 0.0 1.77481
1016 0 0.0 1.77481 1.77481
1270 0 0.0 3.54961 0.0
1268 0 3.54961 0.0 0.0
1267 1 0.0 0.0 3.54961
1517 2 1.77481 1.77481 3.54961
1767 1 1.77481 3.54961 1.77481
2017 2 3.54961 1.77481 1.77481
2269 1 3.54961 3.54961 0.0
2268 1 0.0 3.54961 3.54961
2266 1 3.54961 0.0 3.54961
3268 1 3.54961 3.54961 3.54961
270 0 7.09922 3.54961 3.54961
1518 0 5.32442 1.77481 0.0
1766 0 5.32442 0.0 1.77481
2267 2 7.09922 0.0 0.0
2518 0 5.32442 1.77481 3.54961
2768 2 5.32442 3.54961 1.77481
3017 2 7.09922 1.77481 1.77481
3269 1 7.09922 3.54961 0.0
3266 1 7.09922 0.0 3.54961
1 2 10.6488 1.77481 1.77481
271 1 10.6488 3.54961 0.0
268 1 10.6488 0.0 3.54961
1271 2 10.6488 3.54961 3.54961
2519 1 8.87403 1.77481 0.0
2767 0 8.87403 0.0 1.77481
3267 2 10.6488 0.0 0.0
3517 2 8.87403 1.77481 3.54961
3769 2 8.87403 3.54961 1.77481
269 2 14.1984 0.0 0.0
518 0 12.4236 1.77481 3.54961
770 2 12.4236 3.54961 1.77481
1017 1 14.1984 1.77481 1.77481
1272 0 14.1984 3.54961 0.0
1269 0 14.1984 0.0 3.54961
2270 1 14.1984 3.54961 3.54961
3518 1 12.4236 1.77481 0.0
3768 0 12.4236 0.0 1.77481
519 0 15.9733 1.77481 0.0
769 1 15.9733 0.0 1.77481
1519 1 15.9733 1.77481 3.54961
1768 0 15.9733 3.54961 1.77481
272 0 3.54961 7.09922 3.54961
1520 2 1.77481 5.32442 0.0
2018 1 0.0 5.32442 1.77481
2271 2 0.0 7.09922 0.0
2520 2 1.77481 5.32442 3.54961
2769 2 1.77481 7.09922 1.77481
3018 1 3.54961 5.32442 1.77481
3271 1 3.54961 7.09922 0.0
3270 2 0.0 7.09922 3.54961
2 0 7.09922 5.32442 1.77481
273 0 7.09922 7.09922 0.0
1273 0 7.09922 7.09922 3.54961
2521 0 5.32442 5.32442 0.0
3519 2 5.32442 5.32442 3.54961
3770 0 5.32442 7.09922 1.77481
520 1 8.87403 5.32442 3.54961
771 1 8.87403 7.09922 1.77481
1018 2 10.6488 5.32442 1.77481
1274 1 10.6488 7.09922 0.0
2272 2 10.6488 7.09922 3.54961
3520 2 8.87403 5.32442 0.0
521 1 12.4236 5.32442 0.0
1521 0 12.4236 5.32442 3.54961
1769 0 12.4236 7.09922 1.77481
2019 0 14.1984 5.32442 1.77481
2273 0 14.1984 7.09922 0.0
3272 2 14.1984 7.09922 3.54961
1522 0 15.9733 5.32442 0.0
2522 2 15.9733 5.32442 3.54961
2770 0 15.9733 7.09922 1.77481
3 2 3.54961 8.87403 1.77481
275 2 3.54961 10.6488 0.0
274 1 0.0 10.6488 3.54961
1275 0 3.54961 10.6488 3.54961
2523 1 1.77481 8.87403 0.0
3019 1 0.0 8.87403 1.77481
3273 0 0.0 10.6488 0.0
3521 2 1.77481 8.87403 3.54961
3771 1 1.77481 10.6488 1.77481
522 0 5.32442 8.87403 3.54961
772 2 5.32442 10.6488 1.77481
1019 1 7.09922 8.87403 1.77481
1276 2 7.09922 10.6488 0.0
2274 2 7.09922 10.6488 3.54961
3522 2 5.32442 8.87403 0.0
523 2 8.87403 8.87403 0.0
1523 0 8.87403 8.87403 3.54961
1770 1 8.87403 10.6488 1.77481
2020 1 10.6488 8.87403 1.77481
2275 0 10.6488 10.6488 0.0
3274 2 10.6488 10.6488 3.54961
276 0 14.1984 10.6488 3.54961
1524 1 12.4236 8.87403 0.0
2524 0 12.4236 8.87403 3.54961
2771 1 12.4236 10.6488 1.77481
3020 1 14.1984 8.87403 1.77481
3275 0 14.1984 10.6488 0.0
2525 0 15.9733 8.87403 0.0
3523 0 15.9733 8.87403 3.54961
3772 2 15.9733 10.6488 1.77481
4 1 0.0 12.4236 1.77481
277 1 0.0 14.1984 0.0
524 0 1.77481 12.4236 3.54961
773 2 1.77481 14.1984 1.77481
1020 1 3.54961 12.4236 1.77481
1278 0 3.54961 14.1984 0.0
1277 1 0.0 14.1984 3.54961
2276 0 3.54961 14.1984 3.54961
3524 0 1.77481 12.4236 0.0
525 0 5.32442 12.4236 0.0
1525 2 5.32442 12.4236 3.54961
1771 2 5.32442 14.1984 1.77481
2021 2 7.09922 12.4236 1.77481
2277 2 7.09922 14.1984 0.0
3276 2 7.09922 14.1984 3.54961
278 1 10.6488 14.1984 3.54961
1526 2 8.87403 12.4236 0.0
2526 2 8.87403 12.4236 3.54961
2772 2 8.87403 14.1984 1.77481
3021 1 10.6488 12.4236 1.77481
3277 0 10.6488 14.1984 0.0
5 1 14.1984 12.4236 1.77481
279 1 14.1984 14.1984 0.0
1279 2 14.1984 14.1984 3.54961
2527 0 12.4236 12.4236 0.0
3525 1 12.4236 12.4236 3.54961
3773 0 12.4236 14.1984 1.77481
526 1 15.9733 12.4236 3.54961
774 2 15.9733 14.1984 1.77481
3526 2 15.9733 12.4236 0.0
527 1 1.77481 15.9733 0.0
1021 2 0.0 15.9733 1.77481
1527 1 1.77481 15.9733 3.54961
2022 2 3.54961 15.9733 1.77481
1528 0 5.32442 15.9733 0.0
2528 0 5.32442 15.9733 3.54961
3022 2 7.09922 15.9733 1.77481
6 1 10.6488 15.9733 1.77481
2529 1 8.87403 15.9733 0.0
3527 2 8.87403 15.9733 3.54961
528 0 12.4236 15.9733 3.54961
1022 2 14.1984 15.9733 1.77481
3528 2 12.4236 15.9733 0.0
529 0 15.9733 15.9733 0.0
1529 0 15.9733 15.9733 3.54961
776 0 0.0 3.54961 7.09922
1284 0 1.77481 3.54961 8.87403
1280 1 3.54961 3.54961 7.09922
1772 0 1.77481 0.0 5.32442
2023 0 0.0 1.77481 5.32442
2278 2 0.0 0.0 7.09922
2530 2 1.77481 1.77481 7.09922
2782 0 1.77481 0.0 8.87403
2775 1 1.77481 3.54961 5.32442
2774 1 3.54961 0.0 7.09922
3032 2 0.0 1.77481 8.87403
3023 0 3.54961 1.77481 5.32442
3533 1 3.54961 1.77481 8.87403
7 1 7.09922 1.77481 5.32442
17 1 7.09922 1.77481 8.87403
1783 1 5.32442 3.54961 8.87403
1774 2 7.09922 3.54961 7.09922
2773 0 5.32442 0.0 5.32442
3024 2 5.32442 1.77481 7.09922
3282 2 5.32442 0.0 8.87403
3278 0 7.09922 0.0 7.09922
3776 1 5.32442 3.54961 5.32442
534 2 10.6488 1.77481 8.87403
777 2 8.87403 3.54961 5.32442
1023 1 10.6488 1.77481 5.32442
2283 2 8.87403 3.54961 8.87403
2279 2 10.6488 3.54961 7.09922
3529 2 8.87403 1.77481 7.09922
3784 2 8.87403 0.0 8.87403
3775 0 10.6488 0.0 7.09922
3774 0 8.87403 0.0 5.32442
8 2 12.4236 1.77481 7.09922
252 0 12.4236 0.0 8.87403
280 0 14.1984 0.0 7.09922
775 1 12.4236 0.0 5.32442
1033 0 14.1984 1.77481 8.87403
1775 2 12.4236 3.54961 5.32442
2024 0 14.1984 1.77481 5.32442
2785 1 12.4236 3.54961 8.87403
2777 0 14.1984 3.54961 7.09922
530 0 15.9733 1.77481 7.09922
785 1 15.9733 0.0 8.87403
1773 2 15.9733 0.0 5.32442
2776 1 15.9733 3.54961 5.32442
3285 2 15.9733 3.54961 8.87403
9 0 3.54961 5.32442 5.32442
1024 0 1.77481 5.32442 7.09922
1534 0 0.0 5.32442 8.87403
2034 1 3.54961 5.32442 8.87403
3025 0 0.0 5.32442 5.32442
3279 0 0.0 7.09922 7.09922
3787 0 1.77481 7.09922 8.87403
3778 1 3.54961 7.09922 7.09922
3777 0 1.77481 7.09922 5.32442
281 0 7.09922 7.09922 7.09922
255 0 5.32442 7.09922 8.87403
778 2 5.32442 7.09922 5.32442
1025 1 7.09922 5.32442 5.32442
1530 2 5.32442 5.32442 7.09922
2535 1 7.09922 5.32442 8.87403
788 2 8.87403 7.09922 8.87403
779 1 10.6488 7.09922 7.09922
1776 0 8.87403 7.09922 5.32442
2026 0 10.6488 5.32442 5.32442
2025 1 8.87403 5.32442 7.09922
3035 1 10.6488 5.32442 8.87403
1287 0 12.4236 7.09922 8.87403
1281 1 14.1984 7.09922 7.09922
2531 2 12.4236 5.32442 7.09922
2778 2 12.4236 7.09922 5.32442
3026 2 14.1984 5.32442 5.32442
3536 0 14.1984 5.32442 8.87403
1786 1 15.9733 7.09922 8.87403
3027 1 15.9733 5.32442 7.09922
3779 2 15.9733 7.09922 5.32442
10 1 0.0 8.87403 5.32442
20 1 0.0 8.87403 8.87403
537 2 3.54961 8.87403 8.87403
780 0 1.77481 10.6488 5.32442
1026 2 3.54961 8.87403 5.32442
1777 2 0.0 10.6488 7.09922
2286 0 1.77481 10.6488 8.87403
2280 0 3.54961 10.6488 7.09922
3530 0 1.77481 8.87403 7.09922
11 2 5.32442 8.87403 7.09922
1036 0 7.09922 8.87403 8.87403
1778 0 5.32442 10.6488 5.32442
2027 0 7.09922 8.87403 5.32442
2788 2 5.32442 10.6488 8.87403
2780 2 7.09922 10.6488 7.09922
531 2 8.87403 8.87403 7.09922
1537 0 10.6488 8.87403 8.87403
2779 2 8.87403 10.6488 5.32442
3028 1 10.6488 8.87403 5.32442
3288 1 8.87403 10.6488 8.87403
3280 0 10.6488 10.6488 7.09922
12 2 14.1984 8.87403 5.32442
1027 1 12.4236 8.87403 7.09922
2037 1 14.1984 8.87403 8.87403
3790 0 12.4236 10.6488 8.87403
3781 0 14.1984 10.6488 7.09922
3780 1 12.4236 10.6488 5.32442
258 2 15.9733 10.6488 8.87403
781 1 15.9733 10.6488 5.32442
1531 1 15.9733 8.87403 7.09922
282 1 0.0 14.1984 7.09922
791 1 1.77481 14.1984 8.87403
782 2 3.54961 14.1984 7.09922
1028 1 0.0 12.4236 5.32442
1779 2 1.77481 14.1984 5.32442
2029 0 3.54961 12.4236 5.32442
2028 1 1.77481 12.4236 7.09922
2538 1 0.0 12.4236 8.87403
3038 0 3.54961 12.4236 8.87403
1290 1 5.32442 14.1984 8.87403
1282 2 7.09922 14.1984 7.09922
2532 2 5.32442 12.4236 7.09922
2781 1 5.32442 14.1984 5.32442
3029 0 7.09922 12.4236 5.32442
3539 1 7.09922 12.4236 8.87403
13 2 10.6488 12.4236 5.32442
23 1 10.6488 12.4236 8.87403
1789 2 8.87403 14.1984 8.87403
1780 2 10.6488 14.1984 7.09922
3030 2 8.87403 12.4236 7.09922
3782 2 8.87403 14.1984 5.32442
540 0 14.1984 12.4236 8.87403
783 0 12.4236 14.1984 5.32442
1029 1 14.1984 12.4236 5.32442
2289 2 12.4236 14.1984 8.87403
2281 0 14.1984 14.1984 7.09922
3531 1 12.4236 12.4236 7.09922
14 0 15.9733 12.4236 7.09922
1781 1 15.9733 14.1984 5.32442
2791 1 15.9733 14.1984 8.87403
532 1 1.77481 15.9733 7.09922
1039 2 0.0 15.9733 8.87403
1540 2 3.54961 15.9733 8.87403
2030 0 0.0 15.9733 5.32442
3031 0 3.54961 15.9733 5.32442
15 0 7.09922 15.9733 5.32442
1030 1 5.32442 15.9733 7.09922
2040 2 7.09922 15.9733 8.87403
1031 2 10.6488 15.9733 5.32442
1532 1 8.87403 15.9733 7.09922
2541 1 10.6488 15.9733 8.87403
2032 0 14.1984 15.9733 5.32442
2031 2 12.4236 15.9733 7.09922
3041 1 14.1984 15.9733 8.87403
2533 2 15.9733 15.9733 7.09922
251 0 3.54961 0.0 10.6488
253 1 0.0 3.54961 10.6488
16 1 0.0 1.77481 12.4236
786 2 1.77481 3.54961 12.4236
1032 0 3.54961 1.77481 12.4236
1285 2 3.54961 3.54961 10.6488
3281 1 0.0 0.0 10.6488
3532 1 1.77481 1.77481 10.6488
3783 2 1.77481 0.0 12.4236
533 1 5.32442 1.77481 10.6488
784 2 5.32442 0.0 12.4236
1283 1 7.09922 0.0 10.6488
1784 1 5.32442 3.54961 12.4236
2033 0 7.09922 1.77481 12.4236
2284 0 7.09922 3.54961 10.6488
1533 0 8.87403 1.77481 10.6488
1782 0 8.87403 0.0 12.4236
2282 0 10.6488 0.0 10.6488
2784 0 8.87403 3.54961 12.4236
3033 2 10.6488 1.77481 12.4236
3284 2 10.6488 3.54961 10.6488
254 0 14.1984 3.54961 10.6488
18 2 14.1984 1.77481 12.4236
2534 1 12.4236 1.77481 10.6488
2783 2 12.4236 0.0 12.4236
3283 0 14.1984 0.0 10.6488
3786 1 12.4236 3.54961 12.4236
787 0 15.9733 3.54961 12.4236
3534 2 15.9733 1.77481 10.6488
3785 0 15.9733 0.0 12.4236
535 1 1.77481 5.32442 10.6488
1034 2 0.0 5.32442 12.4236
1286 1 0.0 7.09922 10.6488
1785 0 1.77481 7.09922 12.4236
2035 0 3.54961 5.32442 12.4236
2285 2 3.54961 7.09922 10.6488
1535 1 5.32442 5.32442 10.6488
2786 0 5.32442 7.09922 12.4236
3034 0 7.09922 5.32442 12.4236
3286 2 7.09922 7.09922 10.6488
256 1 10.6488 7.09922 10.6488
19 2 10.6488 5.32442 12.4236
2536 1 8.87403 5.32442 10.6488
3788 2 8.87403 7.09922 12.4236
789 2 12.4236 7.09922 12.4236
1035 0 14.1984 5.32442 12.4236
1288 0 14.1984 7.09922 10.6488
3535 1 12.4236 5.32442 10.6488
536 0 15.9733 5.32442 10.6488
1787 2 15.9733 7.09922 12.4236
1536 2 1.77481 8.87403 10.6488
2036 2 0.0 8.87403 12.4236
2287 2 0.0 10.6488 10.6488
2787 1 1.77481 10.6488 12.4236
3036 2 3.54961 8.87403 12.4236
3287 2 3.54961 10.6488 10.6488
257 2 7.09922 10.6488 10.6488
21 1 7.09922 8.87403 12.4236
2537 0 5.32442 8.87403 10.6488
3789 1 5.32442 10.6488 12.4236
790 2 8.87403 10.6488 12.4236
1037 0 10.6488 8.87403 12.4236
1289 2 10.6488 10.6488 10.6488
3537 2 8.87403 8.87403 10.6488
538 2 12.4236 8.87403 10.6488
1788 1 12.4236 10.6488 12.4236
2038 1 14.1984 8.87403 12.4236
2288 0 14.1984 10.6488 10.6488
1538 0 15.9733 8.87403 10.6488
2789 1 15.9733 10.6488 12.4236
259 0 3.54961 14.1984 10.6488
22 2 3.54961 12.4236 12.4236
2539 0 1.77481 12.4236 10.6488
3037 1 0.0 12.4236 12.4236
3289 2 0.0 14.1984 10.6488
3791 0 1.77481 14.1984 12.4236
792 1 5.32442 14.1984 12.4236
1038 2 7.09922 12.4236 12.4236
1291 0 7.09922 14.1984 10.6488
3538 0 5.32442 12.4236 10.6488
539 2 8.87403 12.4236 10.6488
1790 2 8.87403 14.1984 12.4236
2039 2 10.6488 12.4236 12.4236
2290 2 10.6488 14.1984 10.6488
1539 1 12.4236 12.4236 10.6488
2790 1 12.4236 14.1984 12.4236
3039 0 14.1984 12.4236 12.4236
3290 2 14.1984 14.1984 10.6488
2540 0 15.9733 12.4236 10.6488
3792 2 15.9733 14.1984 12.4236
24 0 0.0 15.9733 12.4236
1040 0 3.54961 15.9733 12.4236
3540 0 1.77481 15.9733 10.6488
541 1 5.32442 15.9733 10.6488
2041 0 7.09922 15.9733 12.4236
1541 1 8.87403 15.9733 10.6488
3040 2 10.6488 15.9733 12.4236
25 1 14.1984 15.9733 12.4236
2542 2 12.4236 15.9733 10.6488
3541 0 15.9733 15.9733 10.6488
260 1 0.0 0.0 14.1984
542 2 1.77481 1.77481 14.1984
793 2 1.77481 0.0 15.9733
1041 0 0.0 1.77481 15.9733
1293 1 0.0 3.54961 14.1984
1292 1 3.54961 0.0 14.1984
1792 0 1.77481 3.54961 15.9733
2042 2 3.54961 1.77481 15.9733
2292 2 3.54961 3.54961 14.1984
1542 1 5.32442 1.77481 14.1984
1791 1 5.32442 0.0 15.9733
2291 0 7.09922 0.0 14.1984
2793 1 5.32442 3.54961 15.9733
3042 0 7.09922 1.77481 15.9733
3292 1 7.09922 3.54961 14.1984
262 2 10.6488 3.54961 14.1984
26 0 10.6488 1.77481 15.9733
2543 1 8.87403 1.77481 14.1984
2792 1 8.87403 0.0 15.9733
3291 2 10.6488 0.0 14.1984
3794 1 8.87403 3.54961 15.9733
261 1 14.1984 0.0 14.1984
795 2 12.4236 3.54961 15.9733
1042 0 14.1984 1.77481 15.9733
1294 0 14.1984 3.54961 14.1984
3542 1 12.4236 1.77481 14.1984
3793 2 12.4236 0.0 15.9733
543 1 15.9733 1.77481 14.1984
794 0 15.9733 0.0 15.9733
1793 0 15.9733 3.54961 15.9733
1543 2 1.77481 5.32442 14.1984
2043 2 0.0 5.32442 15.9733
2293 1 0.0 7.09922 14.1984
2794 0 1.77481 7.09922 15.9733
3043 0 3.54961 5.32442 15.9733
3293 1 3.54961 7.09922 14.1984
263 1 7.09922 7.09922 14.1984
27 1 7.09922 5.32442 15.9733
2544 2 5.32442 5.32442 14.1984
3795 0 5.32442 7.09922 15.9733
796 0 8.87403 7.09922 15.9733
1043 2 10.6488 5.32442 15.9733
1295 2 10.6488 7.09922 14.1984
3543 0 8.87403 5.32442 14.1984
544 0 12.4236 5.32442 14.1984
1794 2 12.4236 7.09922 15.9733
2044 1 14.1984 5.32442 15.9733
2294 1 14.1984 7.09922 14.1984
1544 2 15.9733 5.32442 14.1984
2795 0 15.9733 7.09922 15.9733
264 1 3.54961 10.6488 14.1984
28 2 3.54961 8.87403 15.9733
2545 0 1.77481 8.87403 14.1984
3044 0 0.0 8.87403 15.9733
3294 1 0.0 10.6488 14.1984
3796 2 1.77481 10.6488 15.9733
797 2 5.32442 10.6488 15.9733
1044 0 7.09922 8.87403 15.9733
1296 1 7.09922 10.6488 14.1984
3544 1 5.32442 8.87403 14.1984
545 0 8.87403 8.87403 14.1984
1795 0 8.87403 10.6488 15.9733
2045 1 10.6488 8.87403 15.9733
2295 1 10.6488 10.6488 14.1984
1545 2 12.4236 8.87403 14.1984
2796 1 12.4236 10.6488 15.9733
3045 2 14.1984 8.87403 15.9733
3295 0 14.1984 10.6488 14.1984
2546 2 15.9733 8.87403 14.1984
3797 2 15.9733 10.6488 15.9733
265 2 0.0 14.1984 14.1984
29 2 0.0 12.4236 15.9733
798 0 1.77481 14.1984 15.9733
1045 0 3.54961 12.4236 15.9733
1297 1 3.54961 14.1984 14.1984
3545 2 1.77481 12.4236 14.1984
546 2 5.32442 12.4236 14.1984
1796 2 5.32442 14.1984 15.9733
2046 1 7.09922 12.4236 15.9733
2296 2 7.09922 14.1984 14.1984
1546 2 8.87403 12.4236 14.1984
2797 0 8.87403 14.1984 15.9733
3046 2 10.6488 12.4236 15.9733
3296 2 10.6488 14.1984 14.1984
266 2 14.1984 14.1984 14.1984
30 0 14.1984 12.4236 15.9733
2547 0 12.4236 12.4236 14.1984
3798 0 12.4236 14.1984 15.9733
799 2 15.9733 14.1984 15.9733
3546 0 15.9733 12.4236 14.1984
547 0 1.77481 15.9733 14.1984
1046 2 0.0 15.9733 15.9733
2047 1 3.54961 15.9733 15.9733
1547 1 5.32442 15.9733 14.1984
3047 2 7.09922 15.9733 15.9733
31 1 10.6488 15.9733 15.9733
2548 2 8.87403 15.9733 14.1984
1047 2 14.1984 15.9733 15.9733
3547 0 12.4236 15.9733 14.1984
548 1 15.9733 15.9733 14.1984
285 0 3.54961 3.54961 21.2977
1298 1 0.0 0.0 17.7481
1548 2 1.77481 1.77481 17.7481
1797 1 1.77481 0.0 19.5229
2048 1 0.0 1.77481 19.5229
2300 1 0.0 3.54961 17.7481
2298 0 3.54961 0.0 17.7481
2297 1 0.0 0.0 21.2977
2549 0 1.77481 1.77481 21.2977
2799 1 1.77481 3.54961 19.5229
3048 0 3.54961 1.77481 19.5229
3300 1 3.54961 3.54961 17.7481
3299 2 0.0 3.54961 21.2977
3297 0 3.54961 0.0 21.2977
32 0 7.09922 1.77481 19.5229
286 2 7.09922 3.54961 17.7481
283 1 7.09922 0.0 21.2977
1301 2 7.09922 3.54961 21.2977
2550 1 5.32442 1.77481 17.7481
2798 0 5.32442 0.0 19.5229
3298 2 7.09922 0.0 17.7481
3548 1 5.32442 1.77481 21.2977
3800 2 5.32442 3.54961 19.5229
501 0 8.87403 1.77481 21.2977
284 0 10.6488 0.0 17.7481
801 2 8.87403 3.54961 19.5229
1048 2 10.6488 1.77481 19.5229
1302 2 10.6488 3.54961 17.7481
1299 1 10.6488 0.0 21.2977
2301 0 10.6488 3.54961 21.2977
3549 1 8.87403 1.77481 17.7481
3799 2 8.87403 0.0 19.5229
502 1 12.4236 1.77481 17.7481
800 0 12.4236 0.0 19.5229
1300 0 14.1984 0.0 17.7481
1549 0 12.4236 1.77481 21.2977
1799 0 12.4236 3.54961 19.5229
2049 0 14.1984 1.77481 19.5229
2302 1 14.1984 3.54961 17.7481
2299 2 14.1984 0.0 21.2977
3301 0 14.1984 3.54961 21.2977
1550 2 15.9733 1.77481 17.7481
1798 0 15.9733 0.0 19.5229
2551 2 15.9733 1.77481 21.2977
2800 1 15.9733 3.54961 19.5229
33 0 3.54961 5.32442 19.5229
288 0 3.54961 7.09922 17.7481
287 2 0.0 7.09922 21.2977
1303 2 3.54961 7.09922 21.2977
2552 1 1.77481 5.32442 17.7481
3049 0 0.0 5.32442 19.5229
3302 0 0.0 7.09922 17.7481
3550 1 1.77481 5.32442 21.2977
3801 1 1.77481 7.09922 19.5229
503 0 5.32442 5.32442 21.2977
802 0 5.32442 7.09922 19.5229
1049 2 7.09922 5.32442 19.5229
1304 2 7.09922 7.09922 17.7481
2303 0 7.09922 7.09922 21.2977
3551 1 5.32442 5.32442 17.7481
504 1 8.87403 5.32442 17.7481
1551 0 8.87403 5.32442 21.2977
1800 1 8.87403 7.09922 19.5229
2050 1 10.6488 5.32442 19.5229
2304 2 10.6488 7.09922 17.7481
3303 0 10.6488 7.09922 21.2977
289 0 14.1984 7.09922 21.2977
1552 1 12.4236 5.32442 17.7481
2553 1 12.4236 5.32442 21.2977
2801 1 12.4236 7.09922 19.5229
3050 0 14.1984 5.32442 19.5229
3304 2 14.1984 7.09922 17.7481
2554 1 15.9733 5.32442 17.7481
3552 0 15.9733 5.32442 21.2977
3802 1 15.9733 7.09922 19.5229
505 0 1.77481 8.87403 21.2977
34 0 0.0 8.87403 19.5229
290 1 0.0 10.6488 17.7481
803 1 1.77481 10.6488 19.5229
1050 0 3.54961 8.87403 19.5229
1306 0 3.54961 10.6488 17.7481
1305 0 0.0 10.6488 21.2977
2305 1 3.54961 10.6488 21.2977
3553 2 1.77481 8.87403 17.7481
506 1 5.32442 8.87403 17.7481
1553 2 5.32442 8.87403 21.2977
1801 1 5.32442 10.6488 19.5229
2051 1 7.09922 8.87403 19.5229
2306 0 7.09922 10.6488 17.7481
3305 1 7.09922 10.6488 21.2977
291 1 10.6488 10.6488 21.2977
1554 1 8.87403 8.87403 17.7481
2555 1 8.87403 8.87403 21.2977
2802 2 8.87403 10.6488 19.5229
3051 2 10.6488 8.87403 19.5229
3306 1 10.6488 10.6488 17.7481
35 2 14.1984 8.87403 19.5229
292 2 14.1984 10.6488 17.7481
1307 2 14.1984 10.6488 21.2977
2556 2 12.4236 8.87403 17.7481
3554 1 12.4236 8.87403 21.2977
3803 0 12.4236 10.6488 19.5229
507 0 15.9733 8.87403 21.2977
804 2 15.9733 10.6488 19.5229
3555 1 15.9733 8.87403 17.7481
508 0 1.77481 12.4236 17.7481
1051 1 0.0 12.4236 19.5229
1308 1 0.0 14.1984 17.7481
1555 1 1.77481 12.4236 21.2977
1802 0 1.77481 14.1984 19.5229
2052 0 3.54961 12.4236 19.5229
2308 1 3.54961 14.1984 17.7481
2307 0 0.0 14.1984 21.2977
3307 0 3.54961 14.1984 21.2977
293 2 7.09922 14.1984 21.2977
1556 1 5.32442 12.4236 17.7481
2557 2 5.32442 12.4236 21.2977
2803 2 5.32442 14.1984 19.5229
3052 1 7.09922 12.4236 19.5229
3308 2 7.09922 14.1984 17.7481
36 2 10.6488 12.4236 19.5229
294 2 10.6488 14.1984 17.7481
1309 1 10.6488 14.1984 21.2977
2558 2 8.87403 12.4236 17.7481
3556 2 8.87403 12.4236 21.2977
3804 2 8.87403 14.1984 19.5229
509 1 12.4236 12.4236 21.2977
805 0 12.4236 14.1984 19.5229
1052 1 14.1984 12.4236 19.5229
1310 2 14.1984 14.1984 17.7481
2309 2 14.1984 14.1984 21.2977
3557 2 12.4236 12.4236 17.7481
510 2 15.9733 12.4236 17.7481
1557 2 15.9733 12.4236 21.2977
1803 0 15.9733 14.1984 19.5229
1558 0 1.77481 15.9733 17.7481
2053 0 0.0 15.9733 19.5229
2559 1 1.77481 15.9733 21.2977
3053 0 3.54961 15.9733 19.5229
37 2 7.09922 15.9733 19.5229
2560 2 5.32442 15.9733 17.7481
3558 1 5.32442 15.9733 21.2977
511 2 8.87403 15.9733 21.2977
1053 2 10.6488 15.9733 19.5229
3559 2 8.87403 15.9733 17.7481
512 1 12.4236 15.9733 17.7481
1559 1 12.4236 15.9733 21.2977
2054 1 14.1984 15.9733 19.5229
1560 2 15.9733 15.9733 17.7481
2561 2 15.9733 15.9733 21.2977
39 0 3.54961 1.77481 23.0725
296 0 0.0 3.54961 24.8473
295 1 3.54961 0.0 24.8473
1312 2 3.54961 3.54961 24.8473
2804 2 1.77481 0.0 23.0725
3054 2 0.0 1.77481 23.0725
3309 2 0.0 0.0 24.8473
3560 2 1.77481 1.77481 24.8473
3808 0 1.77481 3.54961 23.0725
513 2 5.32442 1.77481 24.8473
809 1 5.32442 3.54961 23.0725
1055 0 7.09922 1.77481 23.0725
1311 1 7.09922 0.0 24.8473
2311 1 7.09922 3.54961 24.8473
3806 0 5.32442 0.0 23.0725
807 2 8.87403 0.0 23.0725
1561 2 8.87403 1.77481 24.8473
1807 1 8.87403 3.54961 23.0725
2056 0 10.6488 1.77481 23.0725
2310 0 10.6488 0.0 24.8473
3311 2 10.6488 3.54961 24.8473
297 0 14.1984 3.54961 24.8473
1805 0 12.4236 0.0 23.0725
2562 0 12.4236 1.77481 24.8473
2808 2 12.4236 3.54961 23.0725
3056 0 14.1984 1.77481 23.0725
3310 2 14.1984 0.0 24.8473
2806 1 15.9733 0.0 23.0725
3561 1 15.9733 1.77481 24.8473
3810 1 15.9733 3.54961 23.0725
514 1 1.77481 5.32442 24.8473
41 1 0.0 5.32442 23.0725
811 0 1.77481 7.09922 23.0725
1057 1 3.54961 5.32442 23.0725
1313 1 0.0 7.09922 24.8473
2312 0 3.54961 7.09922 24.8473
1562 1 5.32442 5.32442 24.8473
1809 0 5.32442 7.09922 23.0725
2058 1 7.09922 5.32442 23.0725
3312 0 7.09922 7.09922 24.8473
298 0 10.6488 7.09922 24.8473
2563 2 8.87403 5.32442 24.8473
2810 0 8.87403 7.09922 23.0725
3058 2 10.6488 5.32442 23.0725
43 0 14.1984 5.32442 23.0725
1314 2 14.1984 7.09922 24.8473
3562 0 12.4236 5.32442 24.8473
3812 1 12.4236 7.09922 23.0725
515 1 15.9733 5.32442 24.8473
813 1 15.9733 7.09922 23.0725
1059 2 0.0 8.87403 23.0725
1563 0 1.77481 8.87403 24.8473
1811 0 1.77481 10.6488 23.0725
2060 1 3.54961 8.87403 23.0725
2313 0 0.0 10.6488 24.8473
3313 1 3.54961 10.6488 24.8473
299 2 7.09922 10.6488 24.8473
2564 2 5.32442 8.87403 24.8473
2812 2 5.32442 10.6488 23.0725
3060 0 7.09922 8.87403 23.0725
45 2 10.6488 8.87403 23.0725
1315 1 10.6488 10.6488 24.8473
3563 1 8.87403 8.87403 24.8473
3814 0 8.87403 10.6488 23.0725
516 2 12.4236 8.87403 24.8473
752 0 12.4236 10.6488 23.0725
1061 1 14.1984 8.87403 23.0725
2314 0 14.1984 10.6488 24.8473
1564 1 15.9733 8.87403 24.8473
1813 2 15.9733 10.6488 23.0725
300 1 3.54961 14.1984 24.8473
2062 2 0.0 12.4236 23.0725
2565 1 1.77481 12.4236 24.8473
2814 2 1.77481 14.1984 23.0725
3062 1 3.54961 12.4236 23.0725
3314 2 0.0 14.1984 24.8473
47 0 7.09922 12.4236 23.0725
1316 2 7.09922 14.1984 24.8473
3564 2 5.32442 12.4236 24.8473
3816 2 5.32442 14.1984 23.0725
549 2 8.87403 12.4236 24.8473
754 0 8.87403 14.1984 23.0725
1063 2 10.6488 12.4236 23.0725
2315 0 10.6488 14.1984 24.8473
1565 1 12.4236 12.4236 24.8473
1815 2 12.4236 14.1984 23.0725
2064 2 14.1984 12.4236 23.0725
3315 1 14.1984 14.1984 24.8473
2566 0 15.9733 12.4236 24.8473
2816 0 15.9733 14.1984 23.0725
49 0 3.54961 15.9733 23.0725
3064 2 0.0 15.9733 23.0725
3565 2 1.77481 15.9733 24.8473
550 0 5.32442 15.9733 24.8473
1065 1 7.09922 15.9733 23.0725
1566 0 8.87403 15.9733 24.8473
2066 0 10.6488 15.9733 23.0725
2567 2 12.4236 15.9733 24.8473
3066 1 14.1984 15.9733 23.0725
3566 1 15.9733 15.9733 24.8473
755 0 1.77481 0.0 30.1717
808 2 1.77481 3.54961 26.6221
38 0 0.0 1.77481 26.6221
301 0 0.0 0.0 28.3969
551 0 1.77481 1.77481 28.3969
1066 1 0.0 1.77481 30.1717
1054 1 3.54961 1.77481 26.6221
1318 0 0.0 3.54961 28.3969
1317 2 3.54961 0.0 28.3969
1817 2 1.77481 3.54961 30.1717
2067 0 3.54961 1.77481 30.1717
2317 2 3.54961 3.54961 28.3969
3805 0 1.77481 0.0 26.6221
806 1 5.32442 0.0 26.6221
1567 2 5.32442 1.77481 28.3969
1816 0 5.32442 0.0 30.1717
1806 1 5.32442 3.54961 26.6221
2055 2 7.09922 1.77481 26.6221
2316 1 7.09922 0.0 28.3969
2818 0 5.32442 3.54961 30.1717
3067 1 7.09922 1.77481 30.1717
3317 2 7.09922 3.54961 28.3969
51 2 10.6488 1.77481 30.1717
303 0 10.6488 3.54961 28.3969
1804 0 8.87403 0.0 26.6221
2568 0 8.87403 1.77481 28.3969
2817 2 8.87403 0.0 30.1717
2807 2 8.87403 3.54961 26.6221
3055 2 10.6488 1.77481 26.6221
3316 1 10.6488 0.0 28.3969
3819 0 8.87403 3.54961 30.1717
757 1 12.4236 3.54961 30.1717
40 0 14.1984 1.77481 26.6221
302 1 14.1984 0.0 28.3969
1067 0 14.1984 1.77481 30.1717
1319 1 14.1984 3.54961 28.3969
2805 2 12.4236 0.0 26.6221
3567 1 12.4236 1.77481 28.3969
3818 0 12.4236 0.0 30.1717
3809 0 12.4236 3.54961 26.6221
810 1 15.9733 3.54961 26.6221
756 1 15.9733 0.0 30.1717
552 1 15.9733 1.77481 28.3969
1818 2 15.9733 3.54961 30.1717
3807 1 15.9733 0.0 26.6221
1056 2 0.0 5.32442 26.6221
1568 0 1.77481 5.32442 28.3969
1808 1 1.77481 7.09922 26.6221
2068 0 0.0 5.32442 30.1717
2057 2 3.54961 5.32442 26.6221
2318 1 0.0 7.09922 28.3969
2819 0 1.77481 7.09922 30.1717
3068 0 3.54961 5.32442 30.1717
3318 1 3.54961 7.09922 28.3969
52 1 7.09922 5.32442 30.1717
304 0 7.09922 7.09922 28.3969
2569 1 5.32442 5.32442 28.3969
2809 0 5.32442 7.09922 26.6221
3057 2 7.09922 5.32442 26.6221
3820 2 5.32442 7.09922 30.1717
758 1 8.87403 7.09922 30.1717
42 2 10.6488 5.32442 26.6221
1068 1 10.6488 5.32442 30.1717
1320 0 10.6488 7.09922 28.3969
3568 2 8.87403 5.32442 28.3969
3811 2 8.87403 7.09922 26.6221
812 1 12.4236 7.09922 26.6221
553 0 12.4236 5.32442 28.3969
1058 1 14.1984 5.32442 26.6221
1819 2 12.4236 7.09922 30.1717
2069 0 14.1984 5.32442 30.1717
2319 1 14.1984 7.09922 28.3969
1569 1 15.9733 5.32442 28.3969
1810 0 15.9733 7.09922 26.6221
2820 2 15.9733 7.09922 30.1717
53 0 3.54961 8.87403 30.1717
305 2 3.54961 10.6488 28.3969
2059 0 0.0 8.87403 26.6221
2570 2 1.77481 8.87403 28.3969
2811 0 1.77481 10.6488 26.6221
3069 0 0.0 8.87403 30.1717
3059 1 3.54961 8.87403 26.6221
3319 2 0.0 10.6488 28.3969
3821 0 1.77481 10.6488 30.1717
759 1 5.32442 10.6488 30.1717
44 1 7.09922 8.87403 26.6221
1069 0 7.09922 8.87403 30.1717
1321 0 7.09922 10.6488 28.3969
3569 2 5.32442 8.87403 28.3969
3813 1 5.32442 10.6488 26.6221
751 0 8.87403 10.6488 26.6221
554 1 8.87403 8.87403 28.3969
1060 1 10.6488 8.87403 26.6221
1820 1 8.87403 10.6488 30.1717
2070 0 10.6488 8.87403 30.1717
2320 0 10.6488 10.6488 28.3969
1570 2 12.4236 8.87403 28.3969
1812 2 12.4236 10.6488 26.6221
2061 0 14.1984 8.87403 26.6221
2821 1 12.4236 10.6488 30.1717
3070 0 14.1984 8.87403 30.1717
3320 1 14.1984 10.6488 28.3969
2571 2 15.9733 8.87403 28.3969
2813 1 15.9733 10.6488 26.6221
3822 1 15.9733 10.6488 30.1717
760 2 1.77481 14.1984 30.1717
54 1 0.0 12.4236 30.1717
46 0 3.54961 12.4236 26.6221
306 0 0.0 14.1984 28.3969
1070 1 3.54961 12.4236 30.1717
1322 2 3.54961 14.1984 28.3969
3061 1 0.0 12.4236 26.6221
3570 1 1.77481 12.4236 28.3969
3815 0 1.77481 14.1984 26.6221
753 2 5.32442 14.1984 26.6221
555 0 5.32442 12.4236 28.3969
1062 2 7.09922 12.4236 26.6221
1821 0 5.32442 14.1984 30.1717
2071 0 7.09922 12.4236 30.1717
2321 1 7.09922 14.1984 28.3969
1571 1 8.87403 12.4236 28.3969
1814 1 8.87403 14.1984 26.6221
2063 1 10.6488 12.4236 26.6221
2822 0 8.87403 14.1984 30.1717
3071 1 10.6488 12.4236 30.1717
3321 0 10.6488 14.1984 28.3969
55 0 14.1984 12.4236 30.1717
307 2 14.1984 14.1984 28.3969
2572 1 12.4236 12.4236 28.3969
2815 1 12.4236 14.1984 26.6221
3063 1 14.1984 12.4236 26.6221
3823 1 12.4236 14.1984 30.1717
761 2 15.9733 14.1984 30.1717
3571 2 15.9733 12.4236 28.3969
3817 0 15.9733 14.1984 26.6221
48 0 0.0 15.9733 26.6221
556 1 1.77481 15.9733 28.3969
1071 0 0.0 15.9733 30.1717
1064 2 3.54961 15.9733 26.6221
2072 1 3.54961 15.9733 30.1717
1572 1 5.32442 15.9733 28.3969
2065 0 7.09922 15.9733 26.6221
3072 1 7.09922 15.9733 30.1717
56 1 10.6488 15.9733 30.1717
2573 2 8.87403 15.9733 28.3969
3065 1 10.6488 15.9733 26.6221
50 2 14.1984 15.9733 26.6221
1072 0 14.1984 15.9733 30.1717
3572 1 12.4236 15.9733 28.3969
557 0 15.9733 15.9733 28.3969
1323 0 0.0 0.0 31.9465
1573 0 1.77481 1.77481 31.9465
1822 2 1.77481 0.0 33.7213
2073 2 0.0 1.77481 33.7213
2323 0 0.0 3.54961 31.9465
2322 1 3.54961 0.0 31.9465
2824 0 1.77481 3.54961 33.7213
3073 0 3.54961 1.77481 33.7213
3323 2 3.54961 3.54961 31.9465
57 0 7.09922 1.77481 33.7213
309 0 7.09922 3.54961 31.9465
2574 2 5.32442 1.77481 31.9465
2823 1 5.32442 0.0 33.7213
3322 2 7.09922 0.0 31.9465
3825 0 5.32442 3.54961 33.7213
763 0 8.87403 3.54961 33.7213
308 2 10.6488 0.0 31.9465
1073 1 10.6488 1.77481 33.7213
1325 2 10.6488 3.54961 31.9465
3573 1 8.87403 1.77481 31.9465
3824 2 8.87403 0.0 33.7213
762 2 12.4236 0.0 33.7213
558 1 12.4236 1.77481 31.9465
1324 2 14.1984 0.0 31.9465
1824 0 12.4236 3.54961 33.7213
2074 0 14.1984 1.77481 33.7213
2324 1 14.1984 3.54961 31.9465
1574 2 15.9733 1.77481 31.9465
1823 0 15.9733 0.0 33.7213
2825 0 15.9733 3.54961 33.7213
58 0 3.54961 5.32442 33.7213
310 0 3.54961 7.09922 31.9465
2575 1 1.77481 5.32442 31.9465
3074 0 0.0 5.32442 33.7213
3324 1 0.0 7.09922 31.9465
3826 2 1.77481 7.09922 33.7213
764 2 5.32442 7.09922 33.7213
1074 2 7.09922 5.32442 33.7213
1326 0 7.09922 7.09922 31.9465
3574 2 5.32442 5.32442 31.9465
559 2 8.87403 5.32442 31.9465
1825 1 8.87403 7.09922 33.7213
2075 2 10.6488 5.32442 33.7213
2325 1 10.6488 7.09922 31.9465
1575 2 12.4236 5.32442 31.9465
2826 0 12.4236 7.09922 33.7213
3075 0 14.1984 5.32442 33.7213
3325 1 14.1984 7.09922 31.9465
2576 1 15.9733 5.32442 31.9465
3827 0 15.9733 7.09922 33.7213
765 0 1.77481 10.6488 33.7213
59 0 0.0 8.87403 33.7213
311 1 0.0 10.6488 31.9465
1075 0 3.54961 8.87403 33.7213
1327 0 3.54961 10.6488 31.9465
3575 1 1.77481 8.87403 31.9465
560 0 5.32442 8.87403 31.9465
1826 2 5.32442 10.6488 33.7213
2076 0 7.09922 8.87403 33.7213
2326 2 7.09922 10.6488 31.9465
1576 2 8.87403 8.87403 31.9465
2827 2 8.87403 10.6488 33.7213
3076 2 10.6488 8.87403 33.7213
3326 1 10.6488 10.6488 31.9465
60 1 14.1984 8.87403 33.7213
312 1 14.1984 10.6488 31.9465
2577 0 12.4236 8.87403 31.9465
3828 2 12.4236 10.6488 33.7213
766 1 15.9733 10.6488 33.7213
3576 0 15.9733 8.87403 31.9465
561 0 1.77481 12.4236 31.9465
1076 2 0.0 12.4236 33.7213
1328 0 0.0 14.1984 31.9465
1827 1 1.77481 14.1984 33.7213
2077 0 3.54961 12.4236 33.7213
2327 2 3.54961 14.1984 31.9465
1577 1 5.32442 12.4236 31.9465
2828 1 5.32442 14.1984 33.7213
3077 0 7.09922 12.4236 33.7213
3327 1 7.09922 14.1984 31.9465
61 1 10.6488 12.4236 33.7213
313 2 10.6488 14.1984 31.9465
2578 2 8.87403 12.4236 31.9465
3829 0 8.87403 14.1984 33.7213
767 1 12.4236 14.1984 33.7213
1077 0 14.1984 12.4236 33.7213
1329 0 14.1984 14.1984 31.9465
3577 0 12.4236 12.4236 31.9465
562 1 15.9733 12.4236 31.9465
1828 1 15.9733 14.1984 33.7213
1578 0 1.77481 15.9733 31.9465
2078 0 0.0 15.9733 33.7213
3078 1 3.54961 15.9733 33.7213
62 0 7.09922 15.9733 33.7213
2579 2 5.32442 15.9733 31.9465
1078 2 10.6488 15.9733 33.7213
3578 1 8.87403 15.9733 31.9465
563 1 12.4236 15.9733 31.9465
2079 1 14.1984 15.9733 33.7213
1579 0 15.9733 15.9733 31.9465
63 0 3.54961 19.5229 1.77481
316 1 3.54961 17.7481 3.54961
2328 1 0.0 17.7481 0.0
2580 0 1.77481 19.5229 0.0
2829 1 1.77481 17.7481 1.77481
3079 1 0.0 19.5229 1.77481