ITEM: TIMESTEP
0
ITEM: NUMBER OF ATOMS
4000
ITEM: BOX BOUNDS pp pp pp
0.0 35.49612
0.0 35.49612
0.0 35.49612
ITEM: ATOMS id type x y z
267 2 0.0 0.0 0.0
517 1 1.77481 1.77481 0.0
768 0 1.77481 0.0 1.77481
1016 1 0.0 1.77481 1.77481
1270 0 0.0 3.54961 0.0
1268 0 3.54961 0.0 0.0
1267 0 0.0 0.0 3.54961
1517 2 1.77481 1.77481 3.54961
1767 1 1.77481 3.54961 1.77481
2017 0 3.54961 1.77481 1.77481
2269 1 3.54961 3.54961 0.0
2268 2 0.0 3.54961 3.54961
2266 1 3.54961 0.0 3.54961
3268 0 3.54961 3.54961 3.54961
270 0 7.09922 3.54961 3.54961
1518 2 5.32442 1.77481 0.0
1766 0 5.32442 0.0 1.77481
2267 2 7.09922 0.0 0.0
2518 0 5.32442 1.77481 3.54961
2768 1 5.32442 3.54961 1.77481
3017 1 7.09922 1.77481 1.77481
3269 0 7.09922 3.54961 0.0
3266 2 7.09922 0.0 3.54961
1 2 10.6488 1.77481 1.77481
271 2 10.6488 3.54961 0.0
268 0 10.6488 0.0 3.54961
1271 1 10.6488 3.54961 3.54961
2519 2 8.87403 1.77481 0.0
2767 2 8.87403 0.0 1.77481
3267 2 10.6488 0.0 0.0
3517 1 8.87403 1.77481 3.54961
3769 2 8.87403 3.54961 1.77481
269 1 14.1984 0.0 0.0
518 0 12.4236 1.77481 3.54961
770 2 12.4236 3.54961 1.77481
1017 0 14.1984 1.77481 1.77481
1272 0 14.1984 3.54961 0.0
1269 1 14.1984 0.0 3.54961
2270 0 14.1984 3.54961 3.54961
3518 0 12.4236 1.77481 0.0
3768 2 12.4236 0.0 1.77481
519 2 15.9733 1.77481 0.0
769 0 15.9733 0.0 1.77481
1519 2 15.9733 1.77481 3.54961
1768 0 15.9733 3.54961 1.77481
272 2 3.54961 7.09922 3.54961
1520 0 1.77481 5.32442 0.0
2018 2 0.0 5.32442 1.77481
2271 2 0.0 7.09922 0.0
2520 1 1.77481 5.32442 3.54961
2769 0 1.77481 7.09922 1.77481
3018 0 3.54961 5.32442 1.77481
3271 1 3.54961 7.09922 0.0
3270 1 0.0 7.09922 3.54961
2 0 7.09922 5.32442 1.77481
273 0 7.09922 7.09922 0.0
1273 1 7.09922 7.09922 3.54961
2521 1 5.32442 5.32442 0.0
3519 2 5.32442 5.32442 3.54961
3770 2 5.32442 7.09922 1.77481
520 2 8.87403 5.32442 3.54961
771 2 8.87403 7.09922 1.77481
1018 1 10.6488 5.32442 1.77481
1274 2 10.6488 7.09922 0.0
2272 0 10.6488 7.09922 3.54961
3520 2 8.87403 5.32442 0.0
521 2 12.4236 5.32442 0.0
1521 2 12.4236 5.32442 3.54961
1769 2 12.4236 7.09922 1.77481
2019 0 14.1984 5.32442 1.77481
2273 2 14.1984 7.09922 0.0
3272 2 14.1984 7.09922 3.54961
1522 0 15.9733 5.32442 0.0
2522 2 15.9733 5.32442 3.54961
2770 2 15.9733 7.09922 1.77481
3 0 3.54961 8.87403 1.77481
275 1 3.54961 10.6488 0.0
274 0 0.0 10.6488 3.54961
1275 2 3.54961 10.6488 3.54961
2523 1 1.77481 8.87403 0.0
3019 2 0.0 8.87403 1.77481
3273 1 0.0 10.6488 0.0
3521 0 1.77481 8.87403 3.54961
3771 1 1.77481 10.6488 1.77481
522 2 5.32442 8.87403 3.54961
772 0 5.32442 10.6488 1.77481
1019 1 7.09922 8.87403 1.77481
1276 0 7.09922 10.6488 0.0
2274 2 7.09922 10.6488 3.54961
3522 0 5.32442 8.87403 0.0
523 1 8.87403 8.87403 0.0
1523 2 8.87403 8.87403 3.54961
1770 1 8.87403 10.6488 1.77481
2020 2 10.6488 8.87403 1.77481
2275 2 10.6488 10.6488 0.0
3274 2 10.6488 10.6488 3.54961
276 2 14.1984 10.6488 3.54961
1524 0 12.4236 8.87403 0.0
2524 2 12.4236 8.87403 3.54961
2771 2 12.4236 10.6488 1.77481
3020 1 14.1984 8.87403 1.77481
3275 2 14.1984 10.6488 0.0
2525 2 15.9733 8.87403 0.0
3523 0 15.9733 8.87403 3.54961
3772 0 15.9733 10.6488 1.77481
4 0 0.0 12.4236 1.77481
277 2 0.0 14.1984 0.0
524 2 1.77481 12.4236 3.54961
773 0 1.77481 14.1984 1.77481
1020 0 3.54961 12.4236 1.77481
1278 1 3.54961 14.1984 0.0
1277 0 0.0 14.1984 3.54961
2276 1 3.54961 14.1984 3.54961
3524 0 1.77481 12.4236 0.0
525 0 5.32442 12.4236 0.0
1525 2 5.32442 12.4236 3.54961
1771 1 5.32442 14.1984 1.77481
2021 2 7.09922 12.4236 1.77481
2277 1 7.09922 14.1984 0.0
3276 0 7.09922 14.1984 3.54961
278 1 10.6488 14.1984 3.54961
1526 0 8.87403 12.4236 0.0
2526 2 8.87403 12.4236 3.54961
2772 1 8.87403 14.1984 1.77481
3021 1 10.6488 12.4236 1.77481
3277 1 10.6488 14.1984 0.0
5 2 14.1984 12.4236 1.77481
279 1 14.1984 14.1984 0.0
1279 0 14.1984 14.1984 3.54961
2527 0 12.4236 12.4236 0.0
3525 0 12.4236 12.4236 3.54961
3773 0 12.4236 14.1984 1.77481
526 1 15.9733 12.4236 3.54961
774 0 15.9733 14.1984 1.77481
3526 2 15.9733 12.4236 0.0
527 1 1.77481 15.9733 0.0
1021 2 0.0 15.9733 1.77481
1527 1 1.77481 15.9733 3.54961
2022 1 3.54961 15.9733 1.77481
1528 2 5.32442 15.9733 0.0
2528 1 5.32442 15.9733 3.54961
3022 0 7.09922 15.9733 1.77481
6 1 10.6488 15.9733 1.77481
2529 0 8.87403 15.9733 0.0
3527 2 8.87403 15.9733 3.54961
528 0 12.4236 15.9733 3.54961
1022 0 14.1984 15.9733 1.77481
3528 2 12.4236 15.9733 0.0
529 1 15.9733 15.9733 0.0
1529 2 15.9733 15.9733 3.54961
776 1 0.0 3.54961 7.09922
1284 1 1.77481 3.54961 8.87403
1280 1 3.54961 3.54961 7.09922
1772 0 1.77481 0.0 5.32442
2023 2 0.0 1.77481 5.32442
2278 0 0.0 0.0 7.09922
2530 0 1.77481 1.77481 7.09922
2782 1 1.77481 0.0 8.87403
2775 1 1.77481 3.54961 5.32442
2774 0 3.54961 0.0 7.09922
3032 2 0.0 1.77481 8.87403
3023 1 3.54961 1.77481 5.32442
3533 2 3.54961 1.77481 8.87403
7 2 7.09922 1.77481 5.32442
17 2 7.09922 1.77481 8.87403
1783 1 5.32442 3.54961 8.87403
1774 0 7.09922 3.54961 7.09922
2773 0 5.32442 0.0 5.32442
3024 1 5.32442 1.77481 7.09922
3282 0 5.32442 0.0 8.87403
3278 2 7.09922 0.0 7.09922
3776 0 5.32442 3.54961 5.32442
534 1 10.6488 1.77481 8.87403
777 2 8.87403 3.54961 5.32442
1023 0 10.6488 1.77481 5.32442
2283 0 8.87403 3.54961 8.87403
2279 1 10.6488 3.54961 7.09922
3529 0 8.87403 1.77481 7.09922
3784 1 8.87403 0.0 8.87403
3775 1 10.6488 0.0 7.09922
3774 1 8.87403 0.0 5.32442
8 1 12.4236 1.77481 7.09922
252 0 12.4236 0.0 8.87403
280 1 14.1984 0.0 7.09922
775 2 12.4236 0.0 5.32442
1033 2 14.1984 1.77481 8.87403
1775 1 12.4236 3.54961 5.32442
2024 1 14.1984 1.77481 5.32442
2785 0 12.4236 3.54961 8.87403
2777 0 14.1984 3.54961 7.09922
530 2 15.9733 1.77481 7.09922
785 1 15.9733 0.0 8.87403
1773 1 15.9733 0.0 5.32442
2776 2 15.9733 3.54961 5.32442
3285 0 15.9733 3.54961 8.87403
9 1 3.54961 5.32442 5.32442
1024 2 1.77481 5.32442 7.09922
1534 2 0.0 5.32442 8.87403
2034 1 3.54961 5.32442 8.87403
3025 1 0.0 5.32442 5.32442
3279 2 0.0 7.09922 7.09922
3787 2 1.77481 7.09922 8.87403
3778 2 3.54961 7.09922 7.09922
3777 1 1.77481 7.09922 5.32442
281 1 7.09922 7.09922 7.09922
255 0 5.32442 7.09922 8.87403
778 1 5.32442 7.09922 5.32442
1025 0 7.09922 5.32442 5.32442
1530 0 5.32442 5.32442 7.09922
2535 0 7.09922 5.32442 8.87403
788 0 8.87403 7.09922 8.87403
779 1 10.6488 7.09922 7.09922
1776 2 8.87403 7.09922 5.32442
2026 1 10.6488 5.32442 5.32442
2025 0 8.87403 5.32442 7.09922
3035 2 10.6488 5.32442 8.87403
1287 2 12.4236 7.09922 8.87403
1281 2 14.1984 7.09922 7.09922
2531 1 12.4236 5.32442 7.09922
2778 2 12.4236 7.09922 5.32442
3026 1 14.1984 5.32442 5.32442
3536 0 14.1984 5.32442 8.87403
1786 1 15.9733 7.09922 8.87403
3027 1 15.9733 5.32442 7.09922
3779 2 15.9733 7.09922 5.32442
10 2 0.0 8.87403 5.32442
20 2 0.0 8.87403 8.87403
537 1 3.54961 8.87403 8.87403
780 0 1.77481 10.6488 5.32442
1026 1 3.54961 8.87403 5.32442
1777 2 0.0 10.6488 7.09922
2286 2 1.77481 10.6488 8.87403
2280 2 3.54961 10.6488 7.09922
3530 1 1.77481 8.87403 7.09922
11 1 5.32442 8.87403 7.09922
1036 0 7.09922 8.87403 8.87403
1778 1 5.32442 10.6488 5.32442
2027 1 7.09922 8.87403 5.32442
2788 2 5.32442 10.6488 8.87403
2780 1 7.09922 10.6488 7.09922
531 0 8.87403 8.87403 7.09922
1537 2 10.6488 8.87403 8.87403
2779 2 8.87403 10.6488 5.32442
3028 1 10.6488 8.87403 5.32442
3288 0 8.87403 10.6488 8.87403
3280 0 10.6488 10.6488 7.09922
12 0 14.1984 8.87403 5.32442
1027 2 12.4236 8.87403 7.09922
2037 2 14.1984 8.87403 8.87403
3790 0 12.4236 10.6488 8.87403
3781 2 14.1984 10.6488 7.09922
3780 1 12.4236 10.6488 5.32442
258 0 15.9733 10.6488 8.87403
781 2 15.9733 10.6488 5.32442
1531 2 15.9733 8.87403 7.09922
282 0 0.0 14.1984 7.09922
791 1 1.77481 14.1984 8.87403
782 1 3.54961 14.1984 7.09922
1028 1 0.0 12.4236 5.32442
1779 2 1.77481 14.1984 5.32442
2029 0 3.54961 12.4236 5.32442
2028 1 1.77481 12.4236 7.09922
2538 0 0.0 12.4236 8.87403
3038 0 3.54961 12.4236 8.87403
1290 2 5.32442 14.1984 8.87403
1282 0 7.09922 14.1984 7.09922
2532 0 5.32442 12.4236 7.09922
2781 0 5.32442 14.1984 5.32442
3029 0 7.09922 12.4236 5.32442
3539 0 7.09922 12.4236 8.87403
13 2 10.6488 12.4236 5.32442
23 1 10.6488 12.4236 8.87403
1789 1 8.87403 14.1984 8.87403
1780 2 10.6488 14.1984 7.09922
3030 2 8.87403 12.4236 7.09922
3782 2 8.87403 14.1984 5.32442
540 2 14.1984 12.4236 8.87403
783 1 12.4236 14.1984 5.32442
1029 2 14.1984 12.4236 5.32442
2289 0 12.4236 14.1984 8.87403
2281 0 14.1984 14.1984 7.09922
3531 1 12.4236 12.4236 7.09922
14 1 15.9733 12.4236 7.09922
1781 2 15.9733 14.1984 5.32442
2791 0 15.9733 14.1984 8.87403
532 1 1.77481 15.9733 7.09922
1039 2 0.0 15.9733 8.87403
1540 0 3.54961 15.9733 8.87403
2030 0 0.0 15.9733 5.32442
3031 1 3.54961 15.9733 5.32442
15 2 7.09922 15.9733 5.32442
1030 1 5.32442 15.9733 7.09922
2040 0 7.09922 15.9733 8.87403
1031 2 10.6488 15.9733 5.32442
1532 1 8.87403 15.9733 7.09922
2541 0 10.6488 15.9733 8.87403
2032 0 14.1984 15.9733 5.32442
2031 1 12.4236 15.9733 7.09922
3041 2 14.1984 15.9733 8.87403
2533 0 15.9733 15.9733 7.09922
251 2 3.54961 0.0 10.6488
253 2 0.0 3.54961 10.6488
16 1 0.0 1.77481 12.4236
786 0 1.77481 3.54961 12.4236
1032 2 3.54961 1.77481 12.4236
1285 2 3.54961 3.54961 10.6488
3281 0 0.0 0.0 10.6488
3532 2 1.77481 1.77481 10.6488
3783 1 1.77481 0.0 12.4236
533 2 5.32442 1.77481 10.6488
784 2 5.32442 0.0 12.4236
1283 1 7.09922 0.0 10.6488
1784 0 5.32442 3.54961 12.4236
2033 2 7.09922 1.77481 12.4236
2284 2 7.09922 3.54961 10.6488
1533 1 8.87403 1.77481 10.6488
1782 2 8.87403 0.0 12.4236
2282 2 10.6488 0.0 10.6488
2784 1 8.87403 3.54961 12.4236
3033 0 10.6488 1.77481 12.4236
3284 0 10.6488 3.54961 10.6488
254 1 14.1984 3.54961 10.6488
18 2 14.1984 1.77481 12.4236
2534 0 12.4236 1.77481 10.6488
2783 1 12.4236 0.0 12.4236
3283 1 14.1984 0.0 10.6488
3786 1 12.4236 3.54961 12.4236
787 1 15.9733 3.54961 12.4236
3534 1 15.9733 1.77481 10.6488
3785 1 15.9733 0.0 12.4236
535 1 1.77481 5.32442 10.6488
1034 1 0.0 5.32442 12.4236
1286 1 0.0 7.09922 10.6488
1785 0 1.77481 7.09922 12.4236
2035 1 3.54961 5.32442 12.4236
2285 2 3.54961 7.09922 10.6488
1535 1 5.32442 5.32442 10.6488
2786 0 5.32442 7.09922 12.4236
3034 0 7.09922 5.32442 12.4236
3286 0 7.09922 7.09922 10.6488
256 1 10.6488 7.09922 10.6488
19 1 10.6488 5.32442 12.4236
2536 0 8.87403 5.32442 10.6488
3788 2 8.87403 7.09922 12.4236
789 1 12.4236 7.09922 12.4236
1035 1 14.1984 5.32442 12.4236
1288 1 14.1984 7.09922 10.6488
3535 2 12.4236 5.32442 10.6488
536 2 15.9733 5.32442 10.6488
1787 2 15.9733 7.09922 12.4236
1536 1 1.77481 8.87403 10.6488
2036 0 0.0 8.87403 12.4236
2287 0 0.0 10.6488 10.6488
2787 2 1.77481 10.6488 12.4236
3036 0 3.54961 8.87403 12.4236
3287 0 3.54961 10.6488 10.6488
257 2 7.09922 10.6488 10.6488
21 1 7.09922 8.87403 12.4236
2537 2 5.32442 8.87403 10.6488
3789 2 5.32442 10.6488 12.4236
790 0 8.87403 10.6488 12.4236
1037 0 10.6488 8.87403 12.4236
1289 2 10.6488 10.6488 10.6488
3537 2 8.87403 8.87403 10.6488
538 1 12.4236 8.87403 10.6488
1788 1 12.4236 10.6488 12.4236
2038 1 14.1984 8.87403 12.4236
2288 0 14.1984 10.6488 10.6488
1538 1 15.9733 8.87403 10.6488
2789 0 15.9733 10.6488 12.4236
259 2 3.54961 14.1984 10.6488
22 1 3.54961 12.4236 12.4236
2539 1 1.77481 12.4236 10.6488
3037 1 0.0 12.4236 12.4236
3289 2 0.0 14.1984 10.6488
3791 0 1.77481 14.1984 12.4236
792 1 5.32442 14.1984 12.4236
1038 2 7.09922 12.4236 12.4236
1291 2 7.09922 14.1984 10.6488
3538 2 5.32442 12.4236 10.6488
539 0 8.87403 12.4236 10.6488
1790 0 8.87403 14.1984 12.4236
2039 0 10.6488 12.4236 12.4236
2290 1 10.6488 14.1984 10.6488
1539 2 12.4236 12.4236 10.6488
2790 1 12.4236 14.1984 12.4236
3039 0 14.1984 12.4236 12.4236
3290 2 14.1984 14.1984 10.6488
2540 0 15.9733 12.4236 10.6488
3792 1 15.9733 14.1984 12.4236
24 1 0.0 15.9733 12.4236
1040 0 3.54961 15.9733 12.4236
3540 2 1.77481 15.9733 10.6488
541 2 5.32442 15.9733 10.6488
2041 2 7.09922 15.9733 12.4236
1541 2 8.87403 15.9733 10.6488
3040 1 10.6488 15.9733 12.4236
25 2 14.1984 15.9733 12.4236
2542 1 12.4236 15.9733 10.6488
3541 2 15.9733 15.9733 10.6488
260 2 0.0 0.0 14.1984
542 1 1.77481 1.77481 14.1984
793 0 1.77481 0.0 15.9733
1041 1 0.0 1.77481 15.9733
1293 0 0.0 3.54961 14.1984
1292 2 3.54961 0.0 14.1984
1792 1 1.77481 3.54961 15.9733
2042 1 3.54961 1.77481 15.9733
2292 2 3.54961 3.54961 14.1984
1542 1 5.32442 1.77481 14.1984
1791 0 5.32442 0.0 15.9733
2291 0 7.09922 0.0 14.1984
2793 1 5.32442 3.54961 15.9733
3042 0 7.09922 1.77481 15.9733
3292 1 7.09922 3.54961 14.1984
262 2 10.6488 3.54961 14.1984
26 1 10.6488 1.77481 15.9733
2543 1 8.87403 1.77481 14.1984
2792 0 8.87403 0.0 15.9733
3291 2 10.6488 0.0 14.1984
3794 2 8.87403 3.54961 15.9733
261 2 14.1984 0.0 14.1984
795 2 12.4236 3.54961 15.9733
1042 1 14.1984 1.77481 15.9733
1294 0 14.1984 3.54961 14.1984
3542 0 12.4236 1.77481 14.1984
3793 1 12.4236 0.0 15.9733
543 1 15.9733 1.77481 14.1984
794 2 15.9733 0.0 15.9733
1793 2 15.9733 3.54961 15.9733
1543 2 1.77481 5.32442 14.1984
2043 0 0.0 5.32442 15.9733
2293 2 0.0 7.09922 14.1984
2794 1 1.77481 7.09922 15.9733
3043 1 3.54961 5.32442 15.9733
3293 1 3.54961 7.09922 14.1984
263 0 7.09922 7.09922 14.1984
27 2 7.09922 5.32442 15.9733
2544 2 5.32442 5.32442 14.1984
3795 1 5.32442 7.09922 15.9733
796 2 8.87403 7.09922 15.9733
1043 1 10.6488 5.32442 15.9733
1295 2 10.6488 7.09922 14.1984
3543 0 8.87403 5.32442 14.1984
544 2 12.4236 5.32442 14.1984
1794 2 12.4236 7.09922 15.9733
2044 1 14.1984 5.32442 15.9733
2294 0 14.1984 7.09922 14.1984
1544 0 15.9733 5.32442 14.1984
2795 0 15.9733 7.09922 15.9733
264 2 3.54961 10.6488 14.1984
28 0 3.54961 8.87403 15.9733
2545 1 1.77481 8.87403 14.1984
3044 1 0.0 8.87403 15.9733
3294 1 0.0 10.6488 14.1984
3796 2 1.77481 10.6488 15.9733
797 1 5.32442 10.6488 15.9733
1044 2 7.09922 8.87403 15.9733
1296 1 7.09922 10.6488 14.1984
3544 1 5.32442 8.87403 14.1984
545 1 8.87403 8.87403 14.1984
1795 1 8.87403 10.6488 15.9733
2045 0 10.6488 8.87403 15.9733
2295 2 10.6488 10.6488 14.1984
1545 0 12.4236 8.87403 14.1984
2796 1 12.4236 10.6488 15.9733
3045 2 14.1984 8.87403 15.9733
3295 2 14.1984 10.6488 14.1984
2546 0 15.9733 8.87403 14.1984
3797 1 15.9733 10.6488 15.9733
265 1 0.0 14.1984 14.1984
29 0 0.0 12.4236 15.9733
798 2 1.77481 14.1984 15.9733
1045 1 3.54961 12.4236 15.9733
1297 1 3.54961 14.1984 14.1984
3545 2 1.77481 12.4236 14.1984
546 0 5.32442 12.4236 14.1984
1796 1 5.32442 14.1984 15.9733
2046 1 7.09922 12.4236 15.9733
2296 2 7.09922 14.1984 14.1984
1546 0 8.87403 12.4236 14.1984
2797 0 8.87403 14.1984 15.9733
3046 0 10.6488 12.4236 15.9733
3296 1 10.6488 14.1984 14.1984
266 0 14.1984 14.1984 14.1984
30 0 14.1984 12.4236 15.9733
2547 2 12.4236 12.4236 14.1984
3798 1 12.4236 14.1984 15.9733
799 2 15.9733 14.1984 15.9733
3546 2 15.9733 12.4236 14.1984
547 0 1.77481 15.9733 14.1984
1046 1 0.0 15.9733 15.9733
2047 2 3.54961 15.9733 15.9733
1547 2 5.32442 15.9733 14.1984
3047 0 7.09922 15.9733 15.9733
31 2 10.6488 15.9733 15.9733
2548 0 8.87403 15.9733 14.1984
1047 1 14.1984 15.9733 15.9733
3547 0 12.4236 15.9733 14.1984
548 1 15.9733 15.9733 14.1984
285 0 3.54961 3.54961 21.2977
1298 1 0.0 0.0 17.7481
1548 1 1.77481 1.77481 17.7481
1797 2 1.77481 0.0 19.5229
2048 2 0.0 1.77481 19.5229
2300 0 0.0 3.54961 17.7481
2298 1 3.54961 0.0 17.7481
2297 2 0.0 0.0 21.2977
2549 1 1.77481 1.77481 21.2977
2799 2 1.77481 3.54961 19.5229
3048 0 3.54961 1.77481 19.5229
3300 0 3.54961 3.54961 17.7481
3299 1 0.0 3.54961 21.2977
3297 2 3.54961 0.0 21.2977
32 2 7.09922 1.77481 19.5229
286 0 7.09922 3.54961 17.7481
283 1 7.09922 0.0 21.2977
1301 1 7.09922 3.54961 21.2977
2550 1 5.32442 1.77481 17.7481
2798 1 5.32442 0.0 19.5229
3298 1 7.09922 0.0 17.7481
3548 0 5.32442 1.77481 21.2977
3800 2 5.32442 3.54961 19.5229
501 0 8.87403 1.77481 21.2977
284 1 10.6488 0.0 17.7481
801 0 8.87403 3.54961 19.5229
1048 1 10.6488 1.77481 19.5229
1302 0 10.6488 3.54961 17.7481
1299 2 10.6488 0.0 21.2977
2301 2 10.6488 3.54961 21.2977
3549 0 8.87403 1.77481 17.7481
3799 1 8.87403 0.0 19.5229
502 2 12.4236 1.77481 17.7481
800 2 12.4236 0.0 19.5229
1300 1 14.1984 0.0 17.7481
1549 2 12.4236 1.77481 21.2977
1799 0 12.4236 3.54961 19.5229
2049 2 14.1984 1.77481 19.5229
2302 2 14.1984 3.54961 17.7481
2299 2 14.1984 0.0 21.2977
3301 0 14.1984 3.54961 21.2977
1550 0 15.9733 1.77481 17.7481
1798 0 15.9733 0.0 19.5229
2551 1 15.9733 1.77481 21.2977
2800 2 15.9733 3.54961 19.5229
33 2 3.54961 5.32442 19.5229
288 1 3.54961 7.09922 17.7481
287 1 0.0 7.09922 21.2977
1303 0 3.54961 7.09922 21.2977
2552 1 1.77481 5.32442 17.7481
3049 0 0.0 5.32442 19.5229
3302 0 0.0 7.09922 17.7481
3550 2 1.77481 5.32442 21.2977
3801 2 1.77481 7.09922 19.5229
503 1 5.32442 5.32442 21.2977
802 0 5.32442 7.09922 19.5229
1049 2 7.09922 5.32442 19.5229
1304 2 7.09922 7.09922 17.7481
2303 0 7.09922 7.09922 21.2977
3551 1 5.32442 5.32442 17.7481
504 2 8.87403 5.32442 17.7481
1551 2 8.87403 5.32442 21.2977
1800 0 8.87403 7.09922 19.5229
2050 0 10.6488 5.32442 19.5229
2304 2 10.6488 7.09922 17.7481
3303 2 10.6488 7.09922 21.2977
289 0 14.1984 7.09922 21.2977
1552 2 12.4236 5.32442 17.7481
2553 1 12.4236 5.32442 21.2977
2801 1 12.4236 7.09922 19.5229
3050 2 14.1984 5.32442 19.5229
3304 1 14.1984 7.09922 17.7481
2554 1 15.9733 5.32442 17.7481
3552 0 15.9733 5.32442 21.2977
3802 0 15.9733 7.09922 19.5229
505 0 1.77481 8.87403 21.2977
34 0 0.0 8.87403 19.5229
290 0 0.0 10.6488 17.7481
803 0 1.77481 10.6488 19.5229
1050 1 3.54961 8.87403 19.5229
1306 0 3.54961 10.6488 17.7481
1305 1 0.0 10.6488 21.2977
2305 2 3.54961 10.6488 21.2977
3553 1 1.77481 8.87403 17.7481
506 1 5.32442 8.87403 17.7481
1553 2 5.32442 8.87403 21.2977
1801 2 5.32442 10.6488 19.5229
2051 1 7.09922 8.87403 19.5229
2306 1 7.09922 10.6488 17.7481
3305 0 7.09922 10.6488 21.2977
291 1 10.6488 10.6488 21.2977
1554 0 8.87403 8.87403 17.7481
2555 2 8.87403 8.87403 21.2977
2802 0 8.87403 10.6488 19.5229
3051 0 10.6488 8.87403 19.5229
3306 1 10.6488 10.6488 17.7481
35 1 14.1984 8.87403 19.5229
292 0 14.1984 10.6488 17.7481
1307 2 14.1984 10.6488 21.2977
2556 1 12.4236 8.87403 17.7481
3554 0 12.4236 8.87403 21.2977
3803 1 12.4236 10.6488 19.5229
507 2 15.9733 8.87403 21.2977
804 1 15.9733 10.6488 19.5229
3555 0 15.9733 8.87403 17.7481
508 1 1.77481 12.4236 17.7481
1051 0 0.0 12.4236 19.5229
1308 2 0.0 14.1984 17.7481
1555 1 1.77481 12.4236 21.2977
1802 0 1.77481 14.1984 19.5229
2052 2 3.54961 12.4236 19.5229
2308 2 3.54961 14.1984 17.7481
2307 1 0.0 14.1984 21.2977
3307 2 3.54961 14.1984 21.2977
293 0 7.09922 14.1984 21.2977
1556 2 5.32442 12.4236 17.7481
2557 2 5.32442 12.4236 21.2977
2803 1 5.32442 14.1984 19.5229
3052 1 7.09922 12.4236 19.5229
3308 1 7.09922 14.1984 17.7481
36 2 10.6488 12.4236 19.5229
294 1 10.6488 14.1984 17.7481
1309 0 10.6488 14.1984 21.2977
2558 0 8.87403 12.4236 17.7481
3556 2 8.87403 12.4236 21.2977
3804 1 8.87403 14.1984 19.5229
509 0 12.4236 12.4236 21.2977
805 0 12.4236 14.1984 19.5229
1052 0 14.1984 12.4236 19.5229
1310 0 14.1984 14.1984 17.7481
2309 0 14.1984 14.1984 21.2977
3557 0 12.4236 12.4236 17.7481
510 0 15.9733 12.4236 17.7481
1557 0 15.9733 12.4236 21.2977
1803 0 15.9733 14.1984 19.5229
1558 0 1.77481 15.9733 17.7481
2053 1 0.0 15.9733 19.5229
2559 2 1.77481 15.9733 21.2977
3053 0 3.54961 15.9733 19.5229
37 0 7.09922 15.9733 19.5229
2560 0 5.32442 15.9733 17.7481
3558 0 5.32442 15.9733 21.2977
511 0 8.87403 15.9733 21.2977
1053 1 10.6488 15.9733 19.5229
3559 2 8.87403 15.9733 17.7481
512 2 12.4236 15.9733 17.7481
1559 1 12.4236 15.9733 21.2977
2054 0 14.1984 15.9733 19.5229
1560 0 15.9733 15.9733 17.7481
2561 0 15.9733 15.9733 21.2977
39 0 3.54961 1.77481 23.0725
296 2 0.0 3.54961 24.8473
295 0 3.54961 0.0 24.8473
1312 0 3.54961 3.54961 24.8473
2804 2 1.77481 0.0 23.0725
3054 1 0.0 1.77481 23.0725
3309 0 0.0 0.0 24.8473
3560 1 1.77481 1.77481 24.8473
3808 2 1.77481 3.54961 23.0725
513 0 5.32442 1.77481 24.8473
809 2 5.32442 3.54961 23.0725
1055 0 7.09922 1.77481 23.0725
1311 0 7.09922 0.0 24.8473
2311 2 7.09922 3.54961 24.8473
3806 1 5.32442 0.0 23.0725
807 0 8.87403 0.0 23.0725
1561 0 8.87403 1.77481 24.8473
1807 1 8.87403 3.54961 23.0725
2056 2 10.6488 1.77481 23.0725
2310 1 10.6488 0.0 24.8473
3311 0 10.6488 3.54961 24.8473
297 2 14.1984 3.54961 24.8473
1805 1 12.4236 0.0 23.0725
2562 1 12.4236 1.77481 24.8473
2808 2 12.4236 3.54961 23.0725
3056 0 14.1984 1.77481 23.0725
3310 2 14.1984 0.0 24.8473
2806 2 15.9733 0.0 23.0725
3561 2 15.9733 1.77481 24.8473
3810 1 15.9733 3.54961 23.0725
514 0 1.77481 5.32442 24.8473
41 0 0.0 5.32442 23.0725
811 0 1.77481 7.09922 23.0725
1057 2 3.54961 5.32442 23.0725
1313 2 0.0 7.09922 24.8473
2312 0 3.54961 7.09922 24.8473
1562 2 5.32442 5.32442 24.8473
1809 0 5.32442 7.09922 23.0725
2058 1 7.09922 5.32442 23.0725
3312 0 7.09922 7.09922 24.8473
298 0 10.6488 7.09922 24.8473
2563 0 8.87403 5.32442 24.8473
2810 1 8.87403 7.09922 23.0725
3058 2 10.6488 5.32442 23.0725
43 2 14.1984 5.32442 23.0725
1314 2 14.1984 7.09922 24.8473
3562 1 12.4236 5.32442 24.8473
3812 0 12.4236 7.09922 23.0725
515 0 15.9733 5.32442 24.8473
813 0 15.9733 7.09922 23.0725
1059 0 0.0 8.87403 23.0725
1563 0 1.77481 8.87403 24.8473
1811 1 1.77481 10.6488 23.0725
2060 1 3.54961 8.87403 23.0725
2313 0 0.0 10.6488 24.8473
3313 2 3.54961 10.6488 24.8473
299 2 7.09922 10.6488 24.8473
2564 1 5.32442 8.87403 24.8473
2812 1 5.32442 10.6488 23.0725
3060 2 7.09922 8.87403 23.0725
45 2 10.6488 8.87403 23.0725
1315 2 10.6488 10.6488 24.8473
3563 0 8.87403 8.87403 24.8473
3814 1 8.87403 10.6488 23.0725
516 2 12.4236 8.87403 24.8473
752 0 12.4236 10.6488 23.0725
1061 2 14.1984 8.87403 23.0725
2314 2 14.1984 10.6488 24.8473
1564 1 15.9733 8.87403 24.8473
1813 0 15.9733 10.6488 23.0725
300 1 3.54961 14.1984 24.8473
2062 0 0.0 12.4236 23.0725
2565 2 1.77481 12.4236 24.8473
2814 0 1.77481 14.1984 23.0725
3062 0 3.54961 12.4236 23.0725
3314 0 0.0 14.1984 24.8473
47 1 7.09922 12.4236 23.0725
1316 1 7.09922 14.1984 24.8473
3564 2 5.32442 12.4236 24.8473
3816 1 5.32442 14.1984 23.0725
549 0 8.87403 12.4236 24.8473
754 0 8.87403 14.1984 23.0725
1063 2 10.6488 12.4236 23.0725
2315 0 10.6488 14.1984 24.8473
1565 2 12.4236 12.4236 24.8473
1815 2 12.4236 14.1984 23.0725
2064 1 14.1984 12.4236 23.0725
3315 1 14.1984 14.1984 24.8473
2566 1 15.9733 12.4236 24.8473
2816 0 15.9733 14.1984 23.0725
49 2 3.54961 15.9733 23.0725
3064 1 0.0 15.9733 23.0725
3565 2 1.77481 15.9733 24.8473
550 1 5.32442 15.9733 24.8473
1065 0 7.09922 15.9733 23.0725
1566 0 8.87403 15.9733 24.8473
2066 1 10.6488 15.9733 23.0725
2567 2 12.4236 15.9733 24.8473
3066 2 14.1984 15.9733 23.0725
3566 1 15.9733 15.9733 24.8473
755 1 1.77481 0.0 30.1717
808 2 1.77481 3.54961 26.6221
38 0 0.0 1.77481 26.6221
301 2 0.0 0.0 28.3969
551 2 1.77481 1.77481 28.3969
1066 1 0.0 1.77481 30.1717
1054 0 3.54961 1.77481 26.6221
1318 1 0.0 3.54961 28.3969
1317 1 3.54961 0.0 28.3969
1817 1 1.77481 3.54961 30.1717
2067 1 3.54961 1.77481 30.1717
2317 2 3.54961 3.54961 28.3969
3805 1 1.77481 0.0 26.6221
806 0 5.32442 0.0 26.6221
1567 2 5.32442 1.77481 28.3969
1816 1 5.32442 0.0 30.1717
1806 1 5.32442 3.54961 26.6221
2055 1 7.09922 1.77481 26.6221
2316 2 7.09922 0.0 28.3969
2818 1 5.32442 3.54961 30.1717
3067 2 7.09922 1.77481 30.1717
3317 0 7.09922 3.54961 28.3969
51 0 10.6488 1.77481 30.1717
303 1 10.6488 3.54961 28.3969
1804 2 8.87403 0.0 26.6221
2568 0 8.87403 1.77481 28.3969
2817 0 8.87403 0.0 30.1717
2807 0 8.87403 3.54961 26.6221
3055 0 10.6488 1.77481 26.6221
3316 2 10.6488 0.0 28.3969
3819 0 8.87403 3.54961 30.1717
757 2 12.4236 3.54961 30.1717
40 0 14.1984 1.77481 26.6221
302 2 14.1984 0.0 28.3969
1067 0 14.1984 1.77481 30.1717
1319 1 14.1984 3.54961 28.3969
2805 0 12.4236 0.0 26.6221
3567 2 12.4236 1.77481 28.3969
3818 2 12.4236 0.0 30.1717
3809 1 12.4236 3.54961 26.6221
810 2 15.9733 3.54961 26.6221
756 1 15.9733 0.0 30.1717
552 1 15.9733 1.77481 28.3969
1818 0 15.9733 3.54961 30.1717
3807 2 15.9733 0.0 26.6221
1056 1 0.0 5.32442 26.6221
1568 2 1.77481 5.32442 28.3969
1808 0 1.77481 7.09922 26.6221
2068 1 0.0 5.32442 30.1717
2057 2 3.54961 5.32442 26.6221
2318 0 0.0 7.09922 28.3969
2819 1 1.77481 7.09922 30.1717
3068 1 3.54961 5.32442 30.1717
3318 2 3.54961 7.09922 28.3969
52 2 7.09922 5.32442 30.1717
304 1 7.09922 7.09922 28.3969
2569 1 5.32442 5.32442 28.3969
2809 0 5.32442 7.09922 26.6221
3057 1 7.09922 5.32442 26.6221
3820 2 5.32442 7.09922 30.1717
758 0 8.87403 7.09922 30.1717
42 1 10.6488 5.32442 26.6221
1068 1 10.6488 5.32442 30.1717
1320 0 10.6488 7.09922 28.3969
3568 0 8.87403 5.32442 28.3969
3811 0 8.87403 7.09922 26.6221
812 2 12.4236 7.09922 26.6221
553 1 12.4236 5.32442 28.3969
1058 0 14.1984 5.32442 26.6221
1819 1 12.4236 7.09922 30.1717
2069 0 14.1984 5.32442 30.1717
2319 0 14.1984 7.09922 28.3969
1569 2 15.9733 5.32442 28.3969
1810 2 15.9733 7.09922 26.6221
2820 1 15.9733 7.09922 30.1717
53 2 3.54961 8.87403 30.1717
305 2 3.54961 10.6488 28.3969
2059 0 0.0 8.87403 26.6221
2570 2 1.77481 8.87403 28.3969
2811 1 1.77481 10.6488 26.6221
3069 2 0.0 8.87403 30.1717
3059 0 3.54961 8.87403 26.6221
3319 1 0.0 10.6488 28.3969
3821 0 1.77481 10.6488 30.1717
759 0 5.32442 10.6488 30.1717
44 0 7.09922 8.87403 26.6221
1069 0 7.09922 8.87403 30.1717
1321 1 7.09922 10.6488 28.3969
3569 0 5.32442 8.87403 28.3969
3813 0 5.32442 10.6488 26.6221
751 0 8.87403 10.6488 26.6221
554 1 8.87403 8.87403 28.3969
1060 1 10.6488 8.87403 26.6221
1820 0 8.87403 10.6488 30.1717
2070 1 10.6488 8.87403 30.1717
2320 1 10.6488 10.6488 28.3969
1570 2 12.4236 8.87403 28.3969
1812 1 12.4236 10.6488 26.6221
2061 1 14.1984 8.87403 26.6221
2821 1 12.4236 10.6488 30.1717
3070 1 14.1984 8.87403 30.1717
3320 0 14.1984 10.6488 28.3969
2571 1 15.9733 8.87403 28.3969
2813 1 15.9733 10.6488 26.6221
3822 2 15.9733 10.6488 30.1717
760 0 1.77481 14.1984 30.1717
54 0 0.0 12.4236 30.1717
46 0 3.54961 12.4236 26.6221
306 0 0.0 14.1984 28.3969
1070 2 3.54961 12.4236 30.1717
1322 2 3.54961 14.1984 28.3969
3061 0 0.0 12.4236 26.6221
3570 1 1.77481 12.4236 28.3969
3815 0 1.77481 14.1984 26.6221
753 1 5.32442 14.1984 26.6221
555 1 5.32442 12.4236 28.3969
1062 1 7.09922 12.4236 26.6221
1821 2 5.32442 14.1984 30.1717
2071 0 7.09922 12.4236 30.1717
2321 1 7.09922 14.1984 28.3969
1571 0 8.87403 12.4236 28.3969
1814 1 8.87403 14.1984 26.6221
2063 2 10.6488 12.4236 26.6221
2822 1 8.87403 14.1984 30.1717
3071 1 10.6488 12.4236 30.1717
3321 2 10.6488 14.1984 28.3969
55 2 14.1984 12.4236 30.1717
307 2 14.1984 14.1984 28.3969
2572 0 12.4236 12.4236 28.3969
2815 2 12.4236 14.1984 26.6221
3063 1 14.1984 12.4236 26.6221
3823 2 12.4236 14.1984 30.1717
761 0 15.9733 14.1984 30.1717
3571 2 15.9733 12.4236 28.3969
3817 0 15.9733 14.1984 26.6221
48 1 0.0 15.9733 26.6221
556 0 1.77481 15.9733 28.3969
1071 1 0.0 15.9733 30.1717
1064 1 3.54961 15.9733 26.6221
2072 0 3.54961 15.9733 30.1717
1572 1 5.32442 15.9733 28.3969
2065 0 7.09922 15.9733 26.6221
3072 0 7.09922 15.9733 30.1717
56 0 10.6488 15.9733 30.1717
2573 1 8.87403 15.9733 28.3969
3065 1 10.6488 15.9733 26.6221
50 2 14.1984 15.9733 26.6221
1072 1 14.1984 15.9733 30.1717
3572 0 12.4236 15.9733 28.3969
557 2 15.9733 15.9733 28.3969
1323 2 0.0 0.0 31.9465
1573 2 1.77481 1.77481 31.9465
1822 1 1.77481 0.0 33.7213
2073 2 0.0 1.77481 33.7213
2323 0 0.0 3.54961 31.9465
2322 2 3.54961 0.0 31.9465
2824 2 1.77481 3.54961 33.7213
3073 0 3.54961 1.77481 33.7213
3323 0 3.54961 3.54961 31.9465
57 2 7.09922 1.77481 33.7213
309 0 7.09922 3.54961 31.9465
2574 0 5.32442 1.77481 31.9465
2823 1 5.32442 0.0 33.7213
3322 1 7.09922 0.0 31.9465
3825 2 5.32442 3.54961 33.7213
763 2 8.87403 3.54961 33.7213
308 2 10.6488 0.0 31.9465
1073 1 10.6488 1.77481 33.7213
1325 0 10.6488 3.54961 31.9465
3573 1 8.87403 1.77481 31.9465
3824 2 8.87403 0.0 33.7213
762 1 12.4236 0.0 33.7213
558 0 12.4236 1.77481 31.9465
1324 2 14.1984 0.0 31.9465
1824 0 12.4236 3.54961 33.7213
2074 1 14.1984 1.77481 33.7213
2324 1 14.1984 3.54961 31.9465
1574 0 15.9733 1.77481 31.9465
1823 1 15.9733 0.0 33.7213
2825 1 15.9733 3.54961 33.7213
58 1 3.54961 5.32442 33.7213
310 0 3.54961 7.09922 31.9465
2575 0 1.77481 5.32442 31.9465
3074 1 0.0 5.32442 33.7213
3324 1 0.0 7.09922 31.9465
3826 2 1.77481 7.09922 33.7213
764 1 5.32442 7.09922 33.7213
1074 2 7.09922 5.32442 33.7213
1326 2 7.09922 7.09922 31.9465
3574 0 5.32442 5.32442 31.9465
559 2 8.87403 5.32442 31.9465
1825 2 8.87403 7.09922 33.7213
2075 1 10.6488 5.32442 33.7213
2325 2 10.6488 7.09922 31.9465
1575 1 12.4236 5.32442 31.9465
2826 1 12.4236 7.09922 33.7213
3075 2 14.1984 5.32442 33.7213
3325 2 14.1984 7.09922 31.9465
2576 2 15.9733 5.32442 31.9465
3827 1 15.9733 7.09922 33.7213
765 0 1.77481 10.6488 33.7213
59 0 0.0 8.87403 33.7213
311 2 0.0 10.6488 31.9465
1075 1 3.54961 8.87403 33.7213
1327 2 3.54961 10.6488 31.9465
3575 2 1.77481 8.87403 31.9465
560 0 5.32442 8.87403 31.9465
1826 1 5.32442 10.6488 33.7213
2076 2 7.09922 8.87403 33.7213
2326 2 7.09922 10.6488 31.9465
1576 0 8.87403 8.87403 31.9465
2827 2 8.87403 10.6488 33.7213
3076 0 10.6488 8.87403 33.7213
3326 2 10.6488 10.6488 31.9465
60 1 14.1984 8.87403 33.7213
312 0 14.1984 10.6488 31.9465
2577 2 12.4236 8.87403 31.9465
3828 2 12.4236 10.6488 33.7213
766 2 15.9733 10.6488 33.7213
3576 0 15.9733 8.87403 31.9465
561 0 1.77481 12.4236 31.9465
1076 2 0.0 12.4236 33.7213
1328 1 0.0 14.1984 31.9465
1827 2 1.77481 14.1984 33.7213
2077 0 3.54961 12.4236 33.7213
2327 0 3.54961 14.1984 31.9465
1577 1 5.32442 12.4236 31.9465
2828 2 5.32442 14.1984 33.7213
3077 0 7.09922 12.4236 33.7213
3327 0 7.09922 14.1984 31.9465
61 1 10.6488 12.4236 33.7213
313 1 10.6488 14.1984 31.9465
2578 1 8.87403 12.4236 31.9465
3829 0 8.87403 14.1984 33.7213
767 0 12.4236 14.1984 33.7213
1077 2 14.1984 12.4236 33.7213
1329 1 14.1984 14.1984 31.9465
3577 1 12.4236 12.4236 31.9465
562 1 15.9733 12.4236 31.9465
1828 2 15.9733 14.1984 33.7213
1578 2 1.77481 15.9733 31.9465
2078 0 0.0 15.9733 33.7213
3078 1 3.54961 15.9733 33.7213
62 2 7.09922 15.9733 33.7213
2579 1 5.32442 15.9733 31.9465
1078 0 10.6488 15.9733 33.7213
3578 1 8.87403 15.9733 31.9465
563 1 12.4236 15.9733 31.9465
2079 1 14.1984 15.9733 33.7213
1579 1 15.9733 15.9733 31.9465
63 2 3.54961 19.5229 1.77481
316 2 3.54961 17.7481 3.54961
2328 2 0.0 17.7481 0.0
2580 1 1.77481 19.5229 0.0
2829 1 1.77481 17.7481 1.77481
3079 1 0.0 19.5229 1.77481