ITEM: TIMESTEP
0
ITEM: NUMBER OF ATOMS
32000
ITEM: BOX BOUNDS pp pp pp
0.0 70.90034
0.0 70.90034
0.0 70.90034
ITEM: ATOMS id type x y z
1 2 0.0 0.0 0.0
2 3 1.77251 1.77251 0.0
3 3 1.77251 0.0 1.77251
4 2 0.0 1.77251 1.77251
101 1 0.0 0.0 3.54502
102 1 1.77251 1.77251 3.54502
5 1 3.54502 0.0 0.0
6 3 5.31753 1.77251 0.0
7 2 5.31753 0.0 1.77251
8 3 3.54502 1.77251 1.77251
105 3 3.54502 0.0 3.54502
106 3 5.31753 1.77251 3.54502
9 1 7.09003 0.0 0.0
10 3 8.86254 1.77251 0.0
11 1 8.86254 0.0 1.77251
12 3 7.09003 1.77251 1.77251
109 1 7.09003 0.0 3.54502
110 3 8.86254 1.77251 3.54502
13 2 10.6351 0.0 0.0
14 1 12.4076 1.77251 0.0
15 2 12.4076 0.0 1.77251
16 3 10.6351 1.77251 1.77251
113 3 10.6351 0.0 3.54502
114 1 12.4076 1.77251 3.54502
17 3 14.1801 0.0 0.0
18 3 15.9526 1.77251 0.0
19 1 15.9526 0.0 1.77251
20 2 14.1801 1.77251 1.77251
117 3 14.1801 0.0 3.54502
118 1 15.9526 1.77251 3.54502
21 3 0.0 3.54502 0.0
22 1 1.77251 5.31753 0.0
23 2 1.77251 3.54502 1.77251
24 1 0.0 5.31753 1.77251
121 3 0.0 3.54502 3.54502
122 3 1.77251 5.31753 3.54502
25 1 3.54502 3.54502 0.0
26 3 5.31753 5.31753 0.0
27 1 5.31753 3.54502 1.77251
28 2 3.54502 5.31753 1.77251
125 2 3.54502 3.54502 3.54502
126 2 5.31753 5.31753 3.54502
29 1 7.09003 3.54502 0.0
30 3 8.86254 5.31753 0.0
31 3 8.86254 3.54502 1.77251
32 3 7.09003 5.31753 1.77251
129 1 7.09003 3.54502 3.54502
130 1 8.86254 5.31753 3.54502
33 1 10.6351 3.54502 0.0
34 1 12.4076 5.31753 0.0
35 3 12.4076 3.54502 1.77251
36 3 10.6351 5.31753 1.77251
133 3 10.6351 3.54502 3.54502
134 1 12.4076 5.31753 3.54502
37 2 14.1801 3.54502 0.0
38 3 15.9526 5.31753 0.0
39 3 15.9526 3.54502 1.77251
40 1 14.1801 5.31753 1.77251
137 2 14.1801 3.54502 3.54502
138 2 15.9526 5.31753 3.54502
41 3 0.0 7.09003 0.0
42 1 1.77251 8.86254 0.0
43 3 1.77251 7.09003 1.77251
44 1 0.0 8.86254 1.77251
141 3 0.0 7.09003 3.54502
142 2 1.77251 8.86254 3.54502
45 3 3.54502 7.09003 0.0
46 2 5.31753 8.86254 0.0
47 1 5.31753 7.09003 1.77251
48 1 3.54502 8.86254 1.77251
145 3 3.54502 7.09003 3.54502
146 3 5.31753 8.86254 3.54502
49 3 7.09003 7.09003 0.0
50 2 8.86254 8.86254 0.0
51 2 8.86254 7.09003 1.77251
52 1 7.09003 8.86254 1.77251
149 3 7.09003 7.09003 3.54502
150 1 8.86254 8.86254 3.54502
53 1 10.6351 7.09003 0.0
54 3 12.4076 8.86254 0.0
55 2 12.4076 7.09003 1.77251
56 2 10.6351 8.86254 1.77251
153 3 10.6351 7.09003 3.54502
154 1 12.4076 8.86254 3.54502
57 3 14.1801 7.09003 0.0
58 1 15.9526 8.86254 0.0
59 2 15.9526 7.09003 1.77251
60 2 14.1801 8.86254 1.77251
157 1 14.1801 7.09003 3.54502
158 2 15.9526 8.86254 3.54502
61 1 0.0 10.6351 0.0
62 1 1.77251 12.4076 0.0
63 3 1.77251 10.6351 1.77251
64 3 0.0 12.4076 1.77251
161 1 0.0 10.6351 3.54502
162 1 1.77251 12.4076 3.54502
65 1 3.54502 10.6351 0.0
66 1 5.31753 12.4076 0.0
67 3 5.31753 10.6351 1.77251
68 2 3.54502 12.4076 1.77251
165 3 3.54502 10.6351 3.54502
166 1 5.31753 12.4076 3.54502
69 3 7.09003 10.6351 0.0
70 1 8.86254 12.4076 0.0
71 2 8.86254 10.6351 1.77251
72 3 7.09003 12.4076 1.77251
169 3 7.09003 10.6351 3.54502
170 1 8.86254 12.4076 3.54502
73 1 10.6351 10.6351 0.0
74 2 12.4076 12.4076 0.0
75 3 12.4076 10.6351 1.77251
76 2 10.6351 12.4076 1.77251
173 2 10.6351 10.6351 3.54502
174 1 12.4076 12.4076 3.54502
77 2 14.1801 10.6351 0.0
78 2 15.9526 12.4076 0.0
79 1 15.9526 10.6351 1.77251
80 2 14.1801 12.4076 1.77251
177 1 14.1801 10.6351 3.54502
178 3 15.9526 12.4076 3.54502
81 2 0.0 14.1801 0.0
82 2 1.77251 15.9526 0.0
83 1 1.77251 14.1801 1.77251
84 2 0.0 15.9526 1.77251
181 3 0.0 14.1801 3.54502
182 2 1.77251 15.9526 3.54502
85 3 3.54502 14.1801 0.0
86 1 5.31753 15.9526 0.0
87 2 5.31753 14.1801 1.77251
88 1 3.54502 15.9526 1.77251
185 2 3.54502 14.1801 3.54502
186 3 5.31753 15.9526 3.54502
89 2 7.09003 14.1801 0.0
90 3 8.86254 15.9526 0.0
91 3 8.86254 14.1801 1.77251
92 3 7.09003 15.9526 1.77251
189 1 7.09003 14.1801 3.54502
190 1 8.86254 15.9526 3.54502
93 1 10.6351 14.1801 0.0
94 2 12.4076 15.9526 0.0
95 1 12.4076 14.1801 1.77251
96 3 10.6351 15.9526 1.77251
193 3 10.6351 14.1801 3.54502
194 3 12.4076 15.9526 3.54502
97 3 14.1801 14.1801 0.0
98 2 15.9526 15.9526 0.0
99 1 15.9526 14.1801 1.77251
100 2 14.1801 15.9526 1.77251
197 1 14.1801 14.1801 3.54502
198 3 15.9526 15.9526 3.54502
103 2 1.77251 0.0 5.31753
104 3 0.0 1.77251 5.31753
201 1 0.0 0.0 7.09003
202 1 1.77251 1.77251 7.09003
107 1 5.31753 0.0 5.31753
108 1 3.54502 1.77251 5.31753
203 3 3.54502 0.0 7.09003
204 2 5.31753 1.77251 7.09003
111 3 8.86254 0.0 5.31753
112 3 7.09003 1.77251 5.31753
205 3 7.09003 0.0 7.09003
206 3 8.86254 1.77251 7.09003
115 2 12.4076 0.0 5.31753
116 1 10.6351 1.77251 5.31753
207 2 10.6351 0.0 7.09003
208 2 12.4076 1.77251 7.09003
119 2 15.9526 0.0 5.31753
120 3 14.1801 1.77251 5.31753
209 2 14.1801 0.0 7.09003
210 1 15.9526 1.77251 7.09003
123 1 1.77251 3.54502 5.31753
124 1 0.0 5.31753 5.31753
211 3 0.0 3.54502 7.09003
212 1 1.77251 5.31753 7.09003
127 2 5.31753 3.54502 5.31753
128 1 3.54502 5.31753 5.31753
213 2 3.54502 3.54502 7.09003
214 3 5.31753 5.31753 7.09003
131 2 8.86254 3.54502 5.31753
132 3 7.09003 5.31753 5.31753
215 1 7.09003 3.54502 7.09003
216 3 8.86254 5.31753 7.09003
135 2 12.4076 3.54502 5.31753
136 2 10.6351 5.31753 5.31753
217 3 10.6351 3.54502 7.09003
218 1 12.4076 5.31753 7.09003
139 2 15.9526 3.54502 5.31753
140 2 14.1801 5.31753 5.31753
219 3 14.1801 3.54502 7.09003
220 1 15.9526 5.31753 7.09003
143 2 1.77251 7.09003 5.31753
144 1 0.0 8.86254 5.31753
221 3 0.0 7.09003 7.09003
222 1 1.77251 8.86254 7.09003
147 1 5.31753 7.09003 5.31753
148 1 3.54502 8.86254 5.31753
223 2 3.54502 7.09003 7.09003
224 3 5.31753 8.86254 7.09003
151 1 8.86254 7.09003 5.31753
152 3 7.09003 8.86254 5.31753
225 3 7.09003 7.09003 7.09003
226 2 8.86254 8.86254 7.09003
155 2 12.4076 7.09003 5.31753
156 3 10.6351 8.86254 5.31753
227 1 10.6351 7.09003 7.09003
228 1 12.4076 8.86254 7.09003
159 2 15.9526 7.09003 5.31753
160 3 14.1801 8.86254 5.31753
229 3 14.1801 7.09003 7.09003
230 3 15.9526 8.86254 7.09003
163 3 1.77251 10.6351 5.31753
164 2 0.0 12.4076 5.31753
231 3 0.0 10.6351 7.09003
232 3 1.77251 12.4076 7.09003
167 1 5.31753 10.6351 5.31753
168 2 3.54502 12.4076 5.31753
233 3 3.54502 10.6351 7.09003
234 2 5.31753 12.4076 7.09003
171 3 8.86254 10.6351 5.31753
172 3 7.09003 12.4076 5.31753
235 1 7.09003 10.6351 7.09003
236 3 8.86254 12.4076 7.09003
175 2 12.4076 10.6351 5.31753
176 3 10.6351 12.4076 5.31753
237 1 10.6351 10.6351 7.09003
238 1 12.4076 12.4076 7.09003
179 1 15.9526 10.6351 5.31753
180 2 14.1801 12.4076 5.31753
239 2 14.1801 10.6351 7.09003
240 1 15.9526 12.4076 7.09003
183 1 1.77251 14.1801 5.31753
184 1 0.0 15.9526 5.31753
241 2 0.0 14.1801 7.09003
242 3 1.77251 15.9526 7.09003
187 3 5.31753 14.1801 5.31753
188 3 3.54502 15.9526 5.31753
243 1 3.54502 14.1801 7.09003
244 3 5.31753 15.9526 7.09003
191 2 8.86254 14.1801 5.31753
192 2 7.09003 15.9526 5.31753
245 1 7.09003 14.1801 7.09003
246 3 8.86254 15.9526 7.09003
195 3 12.4076 14.1801 5.31753
196 1 10.6351 15.9526 5.31753
247 3 10.6351 14.1801 7.09003
248 2 12.4076 15.9526 7.09003
199 1 15.9526 14.1801 5.31753
200 3 14.1801 15.9526 5.31753
249 1 14.1801 14.1801 7.09003
250 3 15.9526 15.9526 7.09003
251 2 1.77251 0.0 8.86254
252 3 0.0 1.77251 8.86254
301 1 0.0 0.0 10.6351
302 3 1.77251 1.77251 10.6351
303 1 1.77251 0.0 12.4076
304 3 0.0 1.77251 12.4076
253 1 5.31753 0.0 8.86254
254 3 3.54502 1.77251 8.86254
305 1 3.54502 0.0 10.6351
306 2 5.31753 1.77251 10.6351
307 1 5.31753 0.0 12.4076
308 3 3.54502 1.77251 12.4076
255 2 8.86254 0.0 8.86254
256 1 7.09003 1.77251 8.86254
309 3 7.09003 0.0 10.6351
310 3 8.86254 1.77251 10.6351
311 3 8.86254 0.0 12.4076
312 3 7.09003 1.77251 12.4076
257 1 12.4076 0.0 8.86254
258 1 10.6351 1.77251 8.86254
313 2 10.6351 0.0 10.6351
314 2 12.4076 1.77251 10.6351
315 2 12.4076 0.0 12.4076
316 1 10.6351 1.77251 12.4076
259 3 15.9526 0.0 8.86254
260 1 14.1801 1.77251 8.86254
317 2 14.1801 0.0 10.6351
318 1 15.9526 1.77251 10.6351
319 3 15.9526 0.0 12.4076
320 3 14.1801 1.77251 12.4076
261 1 1.77251 3.54502 8.86254
262 2 0.0 5.31753 8.86254
321 1 0.0 3.54502 10.6351
322 3 1.77251 5.31753 10.6351
323 3 1.77251 3.54502 12.4076
324 3 0.0 5.31753 12.4076
263 1 5.31753 3.54502 8.86254
264 3 3.54502 5.31753 8.86254
325 3 3.54502 3.54502 10.6351
326 1 5.31753 5.31753 10.6351
327 1 5.31753 3.54502 12.4076
328 3 3.54502 5.31753 12.4076
265 2 8.86254 3.54502 8.86254
266 1 7.09003 5.31753 8.86254
329 2 7.09003 3.54502 10.6351
330 2 8.86254 5.31753 10.6351
331 3 8.86254 3.54502 12.4076
332 3 7.09003 5.31753 12.4076
267 1 12.4076 3.54502 8.86254
268 3 10.6351 5.31753 8.86254
333 2 10.6351 3.54502 10.6351
334 3 12.4076 5.31753 10.6351
335 1 12.4076 3.54502 12.4076
336 1 10.6351 5.31753 12.4076
269 2 15.9526 3.54502 8.86254
270 1 14.1801 5.31753 8.86254
337 2 14.1801 3.54502 10.6351
338 1 15.9526 5.31753 10.6351
339 3 15.9526 3.54502 12.4076
340 3 14.1801 5.31753 12.4076
271 1 1.77251 7.09003 8.86254
272 3 0.0 8.86254 8.86254
341 3 0.0 7.09003 10.6351
342 2 1.77251 8.86254 10.6351
343 3 1.77251 7.09003 12.4076
344 1 0.0 8.86254 12.4076
273 2 5.31753 7.09003 8.86254
274 2 3.54502 8.86254 8.86254
345 2 3.54502 7.09003 10.6351
346 2 5.31753 8.86254 10.6351
347 3 5.31753 7.09003 12.4076
348 3 3.54502 8.86254 12.4076
275 3 8.86254 7.09003 8.86254
276 3 7.09003 8.86254 8.86254
349 1 7.09003 7.09003 10.6351
350 3 8.86254 8.86254 10.6351
351 3 8.86254 7.09003 12.4076
352 2 7.09003 8.86254 12.4076
277 2 12.4076 7.09003 8.86254
278 3 10.6351 8.86254 8.86254
353 3 10.6351 7.09003 10.6351
354 3 12.4076 8.86254 10.6351
355 3 12.4076 7.09003 12.4076
356 1 10.6351 8.86254 12.4076
279 2 15.9526 7.09003 8.86254
280 1 14.1801 8.86254 8.86254
357 3 14.1801 7.09003 10.6351
358 3 15.9526 8.86254 10.6351
359 1 15.9526 7.09003 12.4076
360 1 14.1801 8.86254 12.4076
281 1 1.77251 10.6351 8.86254
282 2 0.0 12.4076 8.86254
361 3 0.0 10.6351 10.6351
362 2 1.77251 12.4076 10.6351
363 2 1.77251 10.6351 12.4076
364 1 0.0 12.4076 12.4076
283 1 5.31753 10.6351 8.86254
284 2 3.54502 12.4076 8.86254
365 1 3.54502 10.6351 10.6351
366 3 5.31753 12.4076 10.6351
367 1 5.31753 10.6351 12.4076
368 2 3.54502 12.4076 12.4076
285 1 8.86254 10.6351 8.86254
286 3 7.09003 12.4076 8.86254
369 2 7.09003 10.6351 10.6351
370 2 8.86254 12.4076 10.6351
371 1 8.86254 10.6351 12.4076
372 1 7.09003 12.4076 12.4076
287 1 12.4076 10.6351 8.86254
288 3 10.6351 12.4076 8.86254
373 3 10.6351 10.6351 10.6351
374 1 12.4076 12.4076 10.6351
375 2 12.4076 10.6351 12.4076
376 2 10.6351 12.4076 12.4076
289 2 15.9526 10.6351 8.86254
290 2 14.1801 12.4076 8.86254
377 1 14.1801 10.6351 10.6351
378 3 15.9526 12.4076 10.6351
379 2 15.9526 10.6351 12.4076
380 1 14.1801 12.4076 12.4076
291 3 1.77251 14.1801 8.86254
292 1 0.0 15.9526 8.86254
381 1 0.0 14.1801 10.6351
382 2 1.77251 15.9526 10.6351
383 1 1.77251 14.1801 12.4076
384 2 0.0 15.9526 12.4076
293 3 5.31753 14.1801 8.86254
294 2 3.54502 15.9526 8.86254
385 1 3.54502 14.1801 10.6351
386 2 5.31753 15.9526 10.6351
387 1 5.31753 14.1801 12.4076
388 1 3.54502 15.9526 12.4076
295 2 8.86254 14.1801 8.86254
296 2 7.09003 15.9526 8.86254
389 2 7.09003 14.1801 10.6351
390 2 8.86254 15.9526 10.6351
391 2 8.86254 14.1801 12.4076
392 2 7.09003 15.9526 12.4076
297 2 12.4076 14.1801 8.86254
298 1 10.6351 15.9526 8.86254
393 2 10.6351 14.1801 10.6351
394 1 12.4076 15.9526 10.6351
395 3 12.4076 14.1801 12.4076
396 1 10.6351 15.9526 12.4076
299 3 15.9526 14.1801 8.86254
300 1 14.1801 15.9526 8.86254
397 2 14.1801 14.1801 10.6351
398 2 15.9526 15.9526 10.6351
399 3 15.9526 14.1801 12.4076
400 1 14.1801 15.9526 12.4076
401 1 0.0 0.0 14.1801
402 3 1.77251 1.77251 14.1801
403 3 1.77251 0.0 15.9526
404 3 0.0 1.77251 15.9526
405 3 3.54502 0.0 14.1801
406 1 5.31753 1.77251 14.1801
407 2 5.31753 0.0 15.9526
408 1 3.54502 1.77251 15.9526
409 2 7.09003 0.0 14.1801
410 1 8.86254 1.77251 14.1801
411 2 8.86254 0.0 15.9526
412 1 7.09003 1.77251 15.9526
413 1 10.6351 0.0 14.1801
414 2 12.4076 1.77251 14.1801
415 3 12.4076 0.0 15.9526
416 3 10.6351 1.77251 15.9526
417 1 14.1801 0.0 14.1801
418 3 15.9526 1.77251 14.1801
419 2 15.9526 0.0 15.9526
420 3 14.1801 1.77251 15.9526
421 3 0.0 3.54502 14.1801
422 1 1.77251 5.31753 14.1801
423 3 1.77251 3.54502 15.9526
424 2 0.0 5.31753 15.9526
425 2 3.54502 3.54502 14.1801
426 3 5.31753 5.31753 14.1801
427 3 5.31753 3.54502 15.9526
428 2 3.54502 5.31753 15.9526
429 3 7.09003 3.54502 14.1801
430 1 8.86254 5.31753 14.1801
431 3 8.86254 3.54502 15.9526
432 3 7.09003 5.31753 15.9526
433 3 10.6351 3.54502 14.1801
434 3 12.4076 5.31753 14.1801
435 3 12.4076 3.54502 15.9526
436 2 10.6351 5.31753 15.9526
437 1 14.1801 3.54502 14.1801
438 1 15.9526 5.31753 14.1801
439 1 15.9526 3.54502 15.9526
440 3 14.1801 5.31753 15.9526
441 2 0.0 7.09003 14.1801
442 1 1.77251 8.86254 14.1801
443 1 1.77251 7.09003 15.9526
444 3 0.0 8.86254 15.9526
445 2 3.54502 7.09003 14.1801
446 3 5.31753 8.86254 14.1801
447 3 5.31753 7.09003 15.9526
448 2 3.54502 8.86254 15.9526
449 1 7.09003 7.09003 14.1801
450 2 8.86254 8.86254 14.1801
451 1 8.86254 7.09003 15.9526
452 1 7.09003 8.86254 15.9526
453 3 10.6351 7.09003 14.1801
454 3 12.4076 8.86254 14.1801
455 2 12.4076 7.09003 15.9526
456 1 10.6351 8.86254 15.9526
457 2 14.1801 7.09003 14.1801
458 2 15.9526 8.86254 14.1801
459 2 15.9526 7.09003 15.9526
460 1 14.1801 8.86254 15.9526
461 2 0.0 10.6351 14.1801
462 3 1.77251 12.4076 14.1801
463 1 1.77251 10.6351 15.9526
464 3 0.0 12.4076 15.9526
465 3 3.54502 10.6351 14.1801
466 2 5.31753 12.4076 14.1801
467 1 5.31753 10.6351 15.9526
468 3 3.54502 12.4076 15.9526
469 2 7.09003 10.6351 14.1801
470 2 8.86254 12.4076 14.1801
471 2 8.86254 10.6351 15.9526
472 1 7.09003 12.4076 15.9526
473 1 10.6351 10.6351 14.1801
474 1 12.4076 12.4076 14.1801
475 2 12.4076 10.6351 15.9526
476 3 10.6351 12.4076 15.9526
477 2 14.1801 10.6351 14.1801
478 1 15.9526 12.4076 14.1801
479 1 15.9526 10.6351 15.9526
480 3 14.1801 12.4076 15.9526
481 2 0.0 14.1801 14.1801
482 2 1.77251 15.9526 14.1801
483 2 1.77251 14.1801 15.9526
484 2 0.0 15.9526 15.9526
485 1 3.54502 14.1801 14.1801
486 3 5.31753 15.9526 14.1801
487 1 5.31753 14.1801 15.9526
488 2 3.54502 15.9526 15.9526
489 3 7.09003 14.1801 14.1801
490 2 8.86254 15.9526 14.1801
491 2 8.86254 14.1801 15.9526
492 2 7.09003 15.9526 15.9526
493 1 10.6351 14.1801 14.1801
494 3 12.4076 15.9526 14.1801
495 1 12.4076 14.1801 15.9526
496 3 10.6351 15.9526 15.9526
497 2 14.1801 14.1801 14.1801
498 1 15.9526 15.9526 14.1801
499 1 15.9526 14.1801 15.9526
500 2 14.1801 15.9526 15.9526
501 2 0.0 0.0 17.7251
502 1 1.77251 1.77251 17.7251
503 2 1.77251 0.0 19.4976
504 1 0.0 1.77251 19.4976
601 2 0.0 0.0 21.2701
602 3 1.77251 1.77251 21.2701
505 3 3.54502 0.0 17.7251
506 2 5.31753 1.77251 17.7251
507 2 5.31753 0.0 19.4976
508 2 3.54502 1.77251 19.4976
605 3 3.54502 0.0 21.2701
606 1 5.31753 1.77251 21.2701
509 3 7.09003 0.0 17.7251
510 1 8.86254 1.77251 17.7251
511 3 8.86254 0.0 19.4976
512 2 7.09003 1.77251 19.4976
609 1 7.09003 0.0 21.2701
610 2 8.86254 1.77251 21.2701
513 3 10.6351 0.0 17.7251
514 1 12.4076 1.77251 17.7251
515 2 12.4076 0.0 19.4976
516 1 10.6351 1.77251 19.4976
613 3 10.6351 0.0 21.2701
614 2 12.4076 1.77251 21.2701
517 3 14.1801 0.0 17.7251
518 2 15.9526 1.77251 17.7251
519 1 15.9526 0.0 19.4976
520 1 14.1801 1.77251 19.4976
617 3 14.1801 0.0 21.2701
618 2 15.9526 1.77251 21.2701
521 1 0.0 3.54502 17.7251
522 2 1.77251 5.31753 17.7251
523 1 1.77251 3.54502 19.4976
524 3 0.0 5.31753 19.4976
621 1 0.0 3.54502 21.2701
622 3 1.77251 5.31753 21.2701
525 1 3.54502 3.54502 17.7251
526 3 5.31753 5.31753 17.7251
527 1 5.31753 3.54502 19.4976
528 2 3.54502 5.31753 19.4976
625 2 3.54502 3.54502 21.2701
626 2 5.31753 5.31753 21.2701
529 1 7.09003 3.54502 17.7251
530 3 8.86254 5.31753 17.7251
531 2 8.86254 3.54502 19.4976
532 2 7.09003 5.31753 19.4976
629 3 7.09003 3.54502 21.2701
630 1 8.86254 5.31753 21.2701
533 3 10.6351 3.54502 17.7251
534 1 12.4076 5.31753 17.7251
535 2 12.4076 3.54502 19.4976
536 1 10.6351 5.31753 19.4976
633 2 10.6351 3.54502 21.2701
634 3 12.4076 5.31753 21.2701
537 3 14.1801 3.54502 17.7251
538 2 15.9526 5.31753 17.7251
539 1 15.9526 3.54502 19.4976
540 3 14.1801 5.31753 19.4976
637 1 14.1801 3.54502 21.2701
638 2 15.9526 5.31753 21.2701
541 3 0.0 7.09003 17.7251
542 3 1.77251 8.86254 17.7251
543 3 1.77251 7.09003 19.4976
544 1 0.0 8.86254 19.4976
641 3 0.0 7.09003 21.2701
642 2 1.77251 8.86254 21.2701
545 1 3.54502 7.09003 17.7251
546 3 5.31753 8.86254 17.7251
547 2 5.31753 7.09003 19.4976
548 1 3.54502 8.86254 19.4976
645 1 3.54502 7.09003 21.2701
646 3 5.31753 8.86254 21.2701
549 3 7.09003 7.09003 17.7251
550 2 8.86254 8.86254 17.7251
551 1 8.86254 7.09003 19.4976
552 1 7.09003 8.86254 19.4976
649 2 7.09003 7.09003 21.2701
650 3 8.86254 8.86254 21.2701
553 3 10.6351 7.09003 17.7251
554 2 12.4076 8.86254 17.7251
555 2 12.4076 7.09003 19.4976
556 3 10.6351 8.86254 19.4976
653 3 10.6351 7.09003 21.2701
654 3 12.4076 8.86254 21.2701
557 1 14.1801 7.09003 17.7251
558 2 15.9526 8.86254 17.7251
559 3 15.9526 7.09003 19.4976
560 1 14.1801 8.86254 19.4976
657 1 14.1801 7.09003 21.2701
658 3 15.9526 8.86254 21.2701
561 3 0.0 10.6351 17.7251
562 3 1.77251 12.4076 17.7251
563 1 1.77251 10.6351 19.4976
564 3 0.0 12.4076 19.4976
661 2 0.0 10.6351 21.2701
662 1 1.77251 12.4076 21.2701
565 3 3.54502 10.6351 17.7251
566 2 5.31753 12.4076 17.7251
567 2 5.31753 10.6351 19.4976
568 2 3.54502 12.4076 19.4976
665 2 3.54502 10.6351 21.2701
666 3 5.31753 12.4076 21.2701
569 3 7.09003 10.6351 17.7251
570 1 8.86254 12.4076 17.7251
571 2 8.86254 10.6351 19.4976
572 1 7.09003 12.4076 19.4976
669 1 7.09003 10.6351 21.2701
670 1 8.86254 12.4076 21.2701
573 2 10.6351 10.6351 17.7251
574 1 12.4076 12.4076 17.7251
575 1 12.4076 10.6351 19.4976
576 3 10.6351 12.4076 19.4976
673 3 10.6351 10.6351 21.2701
674 3 12.4076 12.4076 21.2701
577 2 14.1801 10.6351 17.7251
578 3 15.9526 12.4076 17.7251
579 3 15.9526 10.6351 19.4976
580 3 14.1801 12.4076 19.4976
677 3 14.1801 10.6351 21.2701
678 1 15.9526 12.4076 21.2701
581 1 0.0 14.1801 17.7251
582 2 1.77251 15.9526 17.7251
583 2 1.77251 14.1801 19.4976
584 1 0.0 15.9526 19.4976
681 3 0.0 14.1801 21.2701
682 3 1.77251 15.9526 21.2701
585 1 3.54502 14.1801 17.7251
586 2 5.31753 15.9526 17.7251
587 3 5.31753 14.1801 19.4976
588 3 3.54502 15.9526 19.4976
685 1 3.54502 14.1801 21.2701
686 1 5.31753 15.9526 21.2701
589 2 7.09003 14.1801 17.7251
590 3 8.86254 15.9526 17.7251
591 3 8.86254 14.1801 19.4976
592 3 7.09003 15.9526 19.4976
689 2 7.09003 14.1801 21.2701
690 3 8.86254 15.9526 21.2701
593 3 10.6351 14.1801 17.7251
594 1 12.4076 15.9526 17.7251
595 1 12.4076 14.1801 19.4976
596 3 10.6351 15.9526 19.4976
693 1 10.6351 14.1801 21.2701
694 2 12.4076 15.9526 21.2701
597 2 14.1801 14.1801 17.7251
598 1 15.9526 15.9526 17.7251
599 2 15.9526 14.1801 19.4976
600 3 14.1801 15.9526 19.4976
697 2 14.1801 14.1801 21.2701
698 1 15.9526 15.9526 21.2701
603 2 1.77251 0.0 23.0426
604 3 0.0 1.77251 23.0426
701 1 0.0 0.0 24.8151
702 2 1.77251 1.77251 24.8151
607 2 5.31753 0.0 23.0426
608 1 3.54502 1.77251 23.0426
703 1 3.54502 0.0 24.8151
704 2 5.31753 1.77251 24.8151
611 2 8.86254 0.0 23.0426
612 1 7.09003 1.77251 23.0426
705 1 7.09003 0.0 24.8151
706 2 8.86254 1.77251 24.8151
615 1 12.4076 0.0 23.0426
616 1 10.6351 1.77251 23.0426
707 3 10.6351 0.0 24.8151
708 1 12.4076 1.77251 24.8151
619 1 15.9526 0.0 23.0426
620 2 14.1801 1.77251 23.0426
709 2 14.1801 0.0 24.8151
710 3 15.9526 1.77251 24.8151
623 2 1.77251 3.54502 23.0426
624 1 0.0 5.31753 23.0426
711 1 0.0 3.54502 24.8151
712 2 1.77251 5.31753 24.8151
627 3 5.31753 3.54502 23.0426
628 1 3.54502 5.31753 23.0426
713 2 3.54502 3.54502 24.8151
714 3 5.31753 5.31753 24.8151
631 2 8.86254 3.54502 23.0426
632 1 7.09003 5.31753 23.0426
715 2 7.09003 3.54502 24.8151
716 1 8.86254 5.31753 24.8151
635 1 12.4076 3.54502 23.0426
636 2 10.6351 5.31753 23.0426
717 3 10.6351 3.54502 24.8151
718 1 12.4076 5.31753 24.8151
639 1 15.9526 3.54502 23.0426
640 2 14.1801 5.31753 23.0426
719 3 14.1801 3.54502 24.8151
720 1 15.9526 5.31753 24.8151
643 2 1.77251 7.09003 23.0426
644 3 0.0 8.86254 23.0426
721 1 0.0 7.09003 24.8151
722 3 1.77251 8.86254 24.8151
647 2 5.31753 7.09003 23.0426
648 1 3.54502 8.86254 23.0426
723 3 3.54502 7.09003 24.8151
724 2 5.31753 8.86254 24.8151
651 1 8.86254 7.09003 23.0426
652 1 7.09003 8.86254 23.0426
725 3 7.09003 7.09003 24.8151
726 1 8.86254 8.86254 24.8151
655 1 12.4076 7.09003 23.0426
656 3 10.6351 8.86254 23.0426
727 2 10.6351 7.09003 24.8151
728 3 12.4076 8.86254 24.8151
659 1 15.9526 7.09003 23.0426
660 3 14.1801 8.86254 23.0426
729 2 14.1801 7.09003 24.8151
730 3 15.9526 8.86254 24.8151
663 1 1.77251 10.6351 23.0426
664 2 0.0 12.4076 23.0426
731 3 0.0 10.6351 24.8151
732 3 1.77251 12.4076 24.8151
667 2 5.31753 10.6351 23.0426
668 1 3.54502 12.4076 23.0426
733 2 3.54502 10.6351 24.8151
734 3 5.31753 12.4076 24.8151
671 3 8.86254 10.6351 23.0426
672 1 7.09003 12.4076 23.0426
735 1 7.09003 10.6351 24.8151
736 2 8.86254 12.4076 24.8151
675 1 12.4076 10.6351 23.0426
676 3 10.6351 12.4076 23.0426
737 1 10.6351 10.6351 24.8151
738 3 12.4076 12.4076 24.8151
679 3 15.9526 10.6351 23.0426
680 2 14.1801 12.4076 23.0426
739 1 14.1801 10.6351 24.8151
740 1 15.9526 12.4076 24.8151
683 2 1.77251 14.1801 23.0426
684 3 0.0 15.9526 23.0426
741 1 0.0 14.1801 24.8151
742 2 1.77251 15.9526 24.8151
687 3 5.31753 14.1801 23.0426
688 2 3.54502 15.9526 23.0426
743 1 3.54502 14.1801 24.8151
744 3 5.31753 15.9526 24.8151
691 2 8.86254 14.1801 23.0426
692 2 7.09003 15.9526 23.0426
745 3 7.09003 14.1801 24.8151
746 3 8.86254 15.9526 24.8151
695 3 12.4076 14.1801 23.0426
696 2 10.6351 15.9526 23.0426
747 3 10.6351 14.1801 24.8151
748 1 12.4076 15.9526 24.8151
699 3 15.9526 14.1801 23.0426
700 1 14.1801 15.9526 23.0426
749 3 14.1801 14.1801 24.8151
750 3 15.9526 15.9526 24.8151
751 3 1.77251 0.0 26.5876
752 1 0.0 1.77251 26.5876
801 2 0.0 0.0 28.3601
802 1 1.77251 1.77251 28.3601
803 1 1.77251 0.0 30.1326
804 3 0.0 1.77251 30.1326
753 2 5.31753 0.0 26.5876
754 1 3.54502 1.77251 26.5876
805 3 3.54502 0.0 28.3601
806 2 5.31753 1.77251 28.3601
807 3 5.31753 0.0 30.1326
808 3 3.54502 1.77251 30.1326
755 3 8.86254 0.0 26.5876
756 3 7.09003 1.77251 26.5876
809 1 7.09003 0.0 28.3601
810 3 8.86254 1.77251 28.3601
811 2 8.86254 0.0 30.1326
812 1 7.09003 1.77251 30.1326
757 2 12.4076 0.0 26.5876
758 3 10.6351 1.77251 26.5876
813 2 10.6351 0.0 28.3601
814 3 12.4076 1.77251 28.3601
815 3 12.4076 0.0 30.1326
816 2 10.6351 1.77251 30.1326
759 1 15.9526 0.0 26.5876
760 2 14.1801 1.77251 26.5876
817 3 14.1801 0.0 28.3601
818 3 15.9526 1.77251 28.3601
819 2 15.9526 0.0 30.1326
820 1 14.1801 1.77251 30.1326
761 3 1.77251 3.54502 26.5876
762 3 0.0 5.31753 26.5876
821 2 0.0 3.54502 28.3601
822 1 1.77251 5.31753 28.3601
823 2 1.77251 3.54502 30.1326
824 3 0.0 5.31753 30.1326
763 1 5.31753 3.54502 26.5876
764 3 3.54502 5.31753 26.5876
825 3 3.54502 3.54502 28.3601
826 3 5.31753 5.31753 28.3601
827 3 5.31753 3.54502 30.1326
828 3 3.54502 5.31753 30.1326
765 3 8.86254 3.54502 26.5876
766 3 7.09003 5.31753 26.5876
829 2 7.09003 3.54502 28.3601
830 2 8.86254 5.31753 28.3601
831 1 8.86254 3.54502 30.1326
832 2 7.09003 5.31753 30.1326
767 2 12.4076 3.54502 26.5876
768 3 10.6351 5.31753 26.5876
833 1 10.6351 3.54502 28.3601
834 3 12.4076 5.31753 28.3601
835 3 12.4076 3.54502 30.1326
836 1 10.6351 5.31753 30.1326
769 1 15.9526 3.54502 26.5876
770 3 14.1801 5.31753 26.5876
837 1 14.1801 3.54502 28.3601
838 3 15.9526 5.31753 28.3601
839 3 15.9526 3.54502 30.1326
840 3 14.1801 5.31753 30.1326
771 1 1.77251 7.09003 26.5876
772 3 0.0 8.86254 26.5876
841 2 0.0 7.09003 28.3601
842 2 1.77251 8.86254 28.3601
843 2 1.77251 7.09003 30.1326
844 1 0.0 8.86254 30.1326
773 1 5.31753 7.09003 26.5876
774 3 3.54502 8.86254 26.5876
845 1 3.54502 7.09003 28.3601
846 2 5.31753 8.86254 28.3601
847 2 5.31753 7.09003 30.1326
848 1 3.54502 8.86254 30.1326
775 2 8.86254 7.09003 26.5876
776 3 7.09003 8.86254 26.5876
849 1 7.09003 7.09003 28.3601
850 1 8.86254 8.86254 28.3601
851 2 8.86254 7.09003 30.1326
852 2 7.09003 8.86254 30.1326
777 1 12.4076 7.09003 26.5876
778 2 10.6351 8.86254 26.5876
853 1 10.6351 7.09003 28.3601
854 2 12.4076 8.86254 28.3601
855 1 12.4076 7.09003 30.1326
856 3 10.6351 8.86254 30.1326
779 1 15.9526 7.09003 26.5876
780 3 14.1801 8.86254 26.5876
857 3 14.1801 7.09003 28.3601
858 1 15.9526 8.86254 28.3601
859 3 15.9526 7.09003 30.1326
860 2 14.1801 8.86254 30.1326
781 1 1.77251 10.6351 26.5876
782 2 0.0 12.4076 26.5876
861 3 0.0 10.6351 28.3601
862 3 1.77251 12.4076 28.3601
863 2 1.77251 10.6351 30.1326
864 3 0.0 12.4076 30.1326
783 2 5.31753 10.6351 26.5876
784 2 3.54502 12.4076 26.5876
865 2 3.54502 10.6351 28.3601
866 1 5.31753 12.4076 28.3601
867 2 5.31753 10.6351 30.1326
868 2 3.54502 12.4076 30.1326
785 2 8.86254 10.6351 26.5876
786 1 7.09003 12.4076 26.5876
869 2 7.09003 10.6351 28.3601
870 2 8.86254 12.4076 28.3601
871 1 8.86254 10.6351 30.1326
872 1 7.09003 12.4076 30.1326
787 3 12.4076 10.6351 26.5876
788 3 10.6351 12.4076 26.5876
873 1 10.6351 10.6351 28.3601
874 2 12.4076 12.4076 28.3601
875 3 12.4076 10.6351 30.1326
876 1 10.6351 12.4076 30.1326
789 2 15.9526 10.6351 26.5876
790 3 14.1801 12.4076 26.5876
877 3 14.1801 10.6351 28.3601
878 1 15.9526 12.4076 28.3601
879 2 15.9526 10.6351 30.1326
880 2 14.1801 12.4076 30.1326
791 2 1.77251 14.1801 26.5876
792 2 0.0 15.9526 26.5876
881 2 0.0 14.1801 28.3601
882 1 1.77251 15.9526 28.3601
883 1 1.77251 14.1801 30.1326
884 2 0.0 15.9526 30.1326
793 2 5.31753 14.1801 26.5876
794 1 3.54502 15.9526 26.5876
885 2 3.54502 14.1801 28.3601
886 2 5.31753 15.9526 28.3601
887 2 5.31753 14.1801 30.1326
888 1 3.54502 15.9526 30.1326
795 1 8.86254 14.1801 26.5876
796 1 7.09003 15.9526 26.5876
889 3 7.09003 14.1801 28.3601
890 2 8.86254 15.9526 28.3601
891 2 8.86254 14.1801 30.1326
892 2 7.09003 15.9526 30.1326
797 1 12.4076 14.1801 26.5876
798 2 10.6351 15.9526 26.5876
893 1 10.6351 14.1801 28.3601
894 3 12.4076 15.9526 28.3601
895 2 12.4076 14.1801 30.1326
896 2 10.6351 15.9526 30.1326
799 3 15.9526 14.1801 26.5876
800 3 14.1801 15.9526 26.5876
897 1 14.1801 14.1801 28.3601
898 3 15.9526 15.9526 28.3601
899 2 15.9526 14.1801 30.1326
900 2 14.1801 15.9526 30.1326
901 2 0.0 0.0 31.9052
902 1 1.77251 1.77251 31.9052
903 1 1.77251 0.0 33.6777
904 2 0.0 1.77251 33.6777
905 1 3.54502 0.0 31.9052
906 3 5.31753 1.77251 31.9052
907 3 5.31753 0.0 33.6777
908 2 3.54502 1.77251 33.6777
909 1 7.09003 0.0 31.9052
910 2 8.86254 1.77251 31.9052
911 3 8.86254 0.0 33.6777
912 2 7.09003 1.77251 33.6777
913 1 10.6351 0.0 31.9052
914 2 12.4076 1.77251 31.9052
915 2 12.4076 0.0 33.6777
916 1 10.6351 1.77251 33.6777
917 3 14.1801 0.0 31.9052
918 1 15.9526 1.77251 31.9052
919 3 15.9526 0.0 33.6777
920 1 14.1801 1.77251 33.6777
921 3 0.0 3.54502 31.9052
922 1 1.77251 5.31753 31.9052
923 2 1.77251 3.54502 33.6777
924 2 0.0 5.31753 33.6777
925 2 3.54502 3.54502 31.9052
926 1 5.31753 5.31753 31.9052
927 3 5.31753 3.54502 33.6777
928 2 3.54502 5.31753 33.6777
929 1 7.09003 3.54502 31.9052
930 2 8.86254 5.31753 31.9052
931 1 8.86254 3.54502 33.6777
932 2 7.09003 5.31753 33.6777
933 2 10.6351 3.54502 31.9052
934 3 12.4076 5.31753 31.9052
935 3 12.4076 3.54502 33.6777
936 1 10.6351 5.31753 33.6777
937 3 14.1801 3.54502 31.9052
938 1 15.9526 5.31753 31.9052
939 2 15.9526 3.54502 33.6777
940 1 14.1801 5.31753 33.6777
941 3 0.0 7.09003 31.9052
942 2 1.77251 8.86254 31.9052
943 1 1.77251 7.09003 33.6777
944 3 0.0 8.86254 33.6777
945 2 3.54502 7.09003 31.9052
946 3 5.31753 8.86254 31.9052
947 1 5.31753 7.09003 33.6777
948 3 3.54502 8.86254 33.6777
949 1 7.09003 7.09003 31.9052
950 3 8.86254 8.86254 31.9052
951 3 8.86254 7.09003 33.6777
952 2 7.09003 8.86254 33.6777
953 3 10.6351 7.09003 31.9052
954 1 12.4076 8.86254 31.9052
955 2 12.4076 7.09003 33.6777
956 2 10.6351 8.86254 33.6777
957 2 14.1801 7.09003 31.9052
958 1 15.9526 8.86254 31.9052
959 2 15.9526 7.09003 33.6777
960 2 14.1801 8.86254 33.6777
961 1 0.0 10.6351 31.9052
962 2 1.77251 12.4076 31.9052
963 2 1.77251 10.6351 33.6777
964 3 0.0 12.4076 33.6777
965 1 3.54502 10.6351 31.9052
966 2 5.31753 12.4076 31.9052
967 3 5.31753 10.6351 33.6777
968 1 3.54502 12.4076 33.6777
969 1 7.09003 10.6351 31.9052
970 2 8.86254 12.4076 31.9052
971 2 8.86254 10.6351 33.6777
972 3 7.09003 12.4076 33.6777
973 1 10.6351 10.6351 31.9052
974 2 12.4076 12.4076 31.9052
975 1 12.4076 10.6351 33.6777
976 2 10.6351 12.4076 33.6777
977 1 14.1801 10.6351 31.9052
978 2 15.9526 12.4076 31.9052
979 3 15.9526 10.6351 33.6777
980 1 14.1801 12.4076 33.6777
981 2 0.0 14.1801 31.9052
982 3 1.77251 15.9526 31.9052
983 2 1.77251 14.1801 33.6777
984 3 0.0 15.9526 33.6777
985 2 3.54502 14.1801 31.9052
986 1 5.31753 15.9526 31.9052
987 3 5.31753 14.1801 33.6777
988 1 3.54502 15.9526 33.6777
989 1 7.09003 14.1801 31.9052
990 1 8.86254 15.9526 31.9052
991 2 8.86254 14.1801 33.6777
992 2 7.09003 15.9526 33.6777
993 1 10.6351 14.1801 31.9052
994 1 12.4076 15.9526 31.9052
995 1 12.4076 14.1801 33.6777
996 2 10.6351 15.9526 33.6777
997 2 14.1801 14.1801 31.9052
998 1 15.9526 15.9526 31.9052
999 2 15.9526 14.1801 33.6777
1000 3 14.1801 15.9526 33.6777
1001 3 0.0 0.0 35.4502
1002 1 1.77251 1.77251 35.4502
1003 2 1.77251 0.0 37.2227
1004 1 0.0 1.77251 37.2227
1101 3 0.0 0.0 38.9952
1102 3 1.77251 1.77251 38.9952
1005 2 3.54502 0.0 35.4502
1006 1 5.31753 1.77251 35.4502
1007 2 5.31753 0.0 37.2227
1008 3 3.54502 1.77251 37.2227
1105 1 3.54502 0.0 38.9952
1106 1 5.31753 1.77251 38.9952
1009 1 7.09003 0.0 35.4502
1010 2 8.86254 1.77251 35.4502
1011 2 8.86254 0.0 37.2227
1012 2 7.09003 1.77251 37.2227
1109 1 7.09003 0.0 38.9952
1110 1 8.86254 1.77251 38.9952
1013 3 10.6351 0.0 35.4502
1014 3 12.4076 1.77251 35.4502
1015 3 12.4076 0.0 37.2227
1016 1 10.6351 1.77251 37.2227
1113 2 10.6351 0.0 38.9952
1114 3 12.4076 1.77251 38.9952
1017 2 14.1801 0.0 35.4502
1018 1 15.9526 1.77251 35.4502
1019 3 15.9526 0.0 37.2227
1020 2 14.1801 1.77251 37.2227
1117 1 14.1801 0.0 38.9952
1118 3 15.9526 1.77251 38.9952
1021 2 0.0 3.54502 35.4502
1022 1 1.77251 5.31753 35.4502
1023 2 1.77251 3.54502 37.2227