ITEM: TIMESTEP
0
ITEM: NUMBER OF ATOMS
32000
ITEM: BOX BOUNDS pp pp pp
0.0 70.90034
0.0 70.90034
0.0 70.90034
ITEM: ATOMS id type x y z
1 1 0.0 0.0 0.0
2 2 1.77251 1.77251 0.0
3 2 1.77251 0.0 1.77251
4 2 0.0 1.77251 1.77251
101 2 0.0 0.0 3.54502
102 1 1.77251 1.77251 3.54502
5 1 3.54502 0.0 0.0
6 2 5.31753 1.77251 0.0
7 1 5.31753 0.0 1.77251
8 2 3.54502 1.77251 1.77251
105 2 3.54502 0.0 3.54502
106 3 5.31753 1.77251 3.54502
9 1 7.09003 0.0 0.0
10 3 8.86254 1.77251 0.0
11 3 8.86254 0.0 1.77251
12 2 7.09003 1.77251 1.77251
109 3 7.09003 0.0 3.54502
110 3 8.86254 1.77251 3.54502
13 1 10.6351 0.0 0.0
14 1 12.4076 1.77251 0.0
15 3 12.4076 0.0 1.77251
16 2 10.6351 1.77251 1.77251
113 1 10.6351 0.0 3.54502
114 3 12.4076 1.77251 3.54502
17 3 14.1801 0.0 0.0
18 3 15.9526 1.77251 0.0
19 1 15.9526 0.0 1.77251
20 3 14.1801 1.77251 1.77251
117 1 14.1801 0.0 3.54502
118 2 15.9526 1.77251 3.54502
21 1 0.0 3.54502 0.0
22 1 1.77251 5.31753 0.0
23 3 1.77251 3.54502 1.77251
24 3 0.0 5.31753 1.77251
121 3 0.0 3.54502 3.54502
122 3 1.77251 5.31753 3.54502
25 1 3.54502 3.54502 0.0
26 3 5.31753 5.31753 0.0
27 1 5.31753 3.54502 1.77251
28 3 3.54502 5.31753 1.77251
125 3 3.54502 3.54502 3.54502
126 2 5.31753 5.31753 3.54502
29 3 7.09003 3.54502 0.0
30 2 8.86254 5.31753 0.0
31 1 8.86254 3.54502 1.77251
32 2 7.09003 5.31753 1.77251
129 2 7.09003 3.54502 3.54502
130 1 8.86254 5.31753 3.54502
33 3 10.6351 3.54502 0.0
34 1 12.4076 5.31753 0.0
35 3 12.4076 3.54502 1.77251
36 2 10.6351 5.31753 1.77251
133 2 10.6351 3.54502 3.54502
134 1 12.4076 5.31753 3.54502
37 2 14.1801 3.54502 0.0
38 1 15.9526 5.31753 0.0
39 2 15.9526 3.54502 1.77251
40 1 14.1801 5.31753 1.77251
137 1 14.1801 3.54502 3.54502
138 2 15.9526 5.31753 3.54502
41 3 0.0 7.09003 0.0
42 3 1.77251 8.86254 0.0
43 1 1.77251 7.09003 1.77251
44 1 0.0 8.86254 1.77251
141 3 0.0 7.09003 3.54502
142 3 1.77251 8.86254 3.54502
45 3 3.54502 7.09003 0.0
46 2 5.31753 8.86254 0.0
47 1 5.31753 7.09003 1.77251
48 2 3.54502 8.86254 1.77251
145 3 3.54502 7.09003 3.54502
146 3 5.31753 8.86254 3.54502
49 3 7.09003 7.09003 0.0
50 2 8.86254 8.86254 0.0
51 1 8.86254 7.09003 1.77251
52 1 7.09003 8.86254 1.77251
149 2 7.09003 7.09003 3.54502
150 1 8.86254 8.86254 3.54502
53 1 10.6351 7.09003 0.0
54 3 12.4076 8.86254 0.0
55 3 12.4076 7.09003 1.77251
56 2 10.6351 8.86254 1.77251
153 2 10.6351 7.09003 3.54502
154 1 12.4076 8.86254 3.54502
57 3 14.1801 7.09003 0.0
58 1 15.9526 8.86254 0.0
59 3 15.9526 7.09003 1.77251
60 2 14.1801 8.86254 1.77251
157 2 14.1801 7.09003 3.54502
158 1 15.9526 8.86254 3.54502
61 2 0.0 10.6351 0.0
62 1 1.77251 12.4076 0.0
63 2 1.77251 10.6351 1.77251
64 1 0.0 12.4076 1.77251
161 2 0.0 10.6351 3.54502
162 2 1.77251 12.4076 3.54502
65 2 3.54502 10.6351 0.0
66 1 5.31753 12.4076 0.0
67 1 5.31753 10.6351 1.77251
68 2 3.54502 12.4076 1.77251
165 1 3.54502 10.6351 3.54502
166 3 5.31753 12.4076 3.54502
69 2 7.09003 10.6351 0.0
70 1 8.86254 12.4076 0.0
71 1 8.86254 10.6351 1.77251
72 2 7.09003 12.4076 1.77251
169 3 7.09003 10.6351 3.54502
170 1 8.86254 12.4076 3.54502
73 2 10.6351 10.6351 0.0
74 2 12.4076 12.4076 0.0
75 1 12.4076 10.6351 1.77251
76 2 10.6351 12.4076 1.77251
173 2 10.6351 10.6351 3.54502
174 2 12.4076 12.4076 3.54502
77 1 14.1801 10.6351 0.0
78 2 15.9526 12.4076 0.0
79 3 15.9526 10.6351 1.77251
80 3 14.1801 12.4076 1.77251
177 3 14.1801 10.6351 3.54502
178 3 15.9526 12.4076 3.54502
81 2 0.0 14.1801 0.0
82 1 1.77251 15.9526 0.0
83 2 1.77251 14.1801 1.77251
84 2 0.0 15.9526 1.77251
181 3 0.0 14.1801 3.54502
182 2 1.77251 15.9526 3.54502
85 1 3.54502 14.1801 0.0
86 1 5.31753 15.9526 0.0
87 2 5.31753 14.1801 1.77251
88 3 3.54502 15.9526 1.77251
185 1 3.54502 14.1801 3.54502
186 1 5.31753 15.9526 3.54502
89 2 7.09003 14.1801 0.0
90 1 8.86254 15.9526 0.0
91 1 8.86254 14.1801 1.77251
92 2 7.09003 15.9526 1.77251
189 2 7.09003 14.1801 3.54502
190 1 8.86254 15.9526 3.54502
93 3 10.6351 14.1801 0.0
94 3 12.4076 15.9526 0.0
95 1 12.4076 14.1801 1.77251
96 3 10.6351 15.9526 1.77251
193 3 10.6351 14.1801 3.54502
194 1 12.4076 15.9526 3.54502
97 2 14.1801 14.1801 0.0
98 1 15.9526 15.9526 0.0
99 1 15.9526 14.1801 1.77251
100 3 14.1801 15.9526 1.77251
197 3 14.1801 14.1801 3.54502
198 3 15.9526 15.9526 3.54502
103 1 1.77251 0.0 5.31753
104 2 0.0 1.77251 5.31753
201 2 0.0 0.0 7.09003
202 3 1.77251 1.77251 7.09003
107 1 5.31753 0.0 5.31753
108 2 3.54502 1.77251 5.31753
203 2 3.54502 0.0 7.09003
204 2 5.31753 1.77251 7.09003
111 2 8.86254 0.0 5.31753
112 1 7.09003 1.77251 5.31753
205 2 7.09003 0.0 7.09003
206 1 8.86254 1.77251 7.09003
115 2 12.4076 0.0 5.31753
116 1 10.6351 1.77251 5.31753
207 2 10.6351 0.0 7.09003
208 2 12.4076 1.77251 7.09003
119 3 15.9526 0.0 5.31753
120 3 14.1801 1.77251 5.31753
209 1 14.1801 0.0 7.09003
210 1 15.9526 1.77251 7.09003
123 3 1.77251 3.54502 5.31753
124 1 0.0 5.31753 5.31753
211 2 0.0 3.54502 7.09003
212 2 1.77251 5.31753 7.09003
127 1 5.31753 3.54502 5.31753
128 2 3.54502 5.31753 5.31753
213 1 3.54502 3.54502 7.09003
214 2 5.31753 5.31753 7.09003
131 3 8.86254 3.54502 5.31753
132 2 7.09003 5.31753 5.31753
215 2 7.09003 3.54502 7.09003
216 1 8.86254 5.31753 7.09003
135 2 12.4076 3.54502 5.31753
136 1 10.6351 5.31753 5.31753
217 2 10.6351 3.54502 7.09003
218 1 12.4076 5.31753 7.09003
139 3 15.9526 3.54502 5.31753
140 1 14.1801 5.31753 5.31753
219 3 14.1801 3.54502 7.09003
220 1 15.9526 5.31753 7.09003
143 3 1.77251 7.09003 5.31753
144 1 0.0 8.86254 5.31753
221 3 0.0 7.09003 7.09003
222 1 1.77251 8.86254 7.09003
147 1 5.31753 7.09003 5.31753
148 3 3.54502 8.86254 5.31753
223 3 3.54502 7.09003 7.09003
224 3 5.31753 8.86254 7.09003
151 2 8.86254 7.09003 5.31753
152 3 7.09003 8.86254 5.31753
225 3 7.09003 7.09003 7.09003
226 1 8.86254 8.86254 7.09003
155 3 12.4076 7.09003 5.31753
156 2 10.6351 8.86254 5.31753
227 2 10.6351 7.09003 7.09003
228 1 12.4076 8.86254 7.09003
159 2 15.9526 7.09003 5.31753
160 2 14.1801 8.86254 5.31753
229 3 14.1801 7.09003 7.09003
230 1 15.9526 8.86254 7.09003
163 3 1.77251 10.6351 5.31753
164 1 0.0 12.4076 5.31753
231 3 0.0 10.6351 7.09003
232 3 1.77251 12.4076 7.09003
167 1 5.31753 10.6351 5.31753
168 1 3.54502 12.4076 5.31753
233 2 3.54502 10.6351 7.09003
234 2 5.31753 12.4076 7.09003
171 2 8.86254 10.6351 5.31753
172 2 7.09003 12.4076 5.31753
235 3 7.09003 10.6351 7.09003
236 1 8.86254 12.4076 7.09003
175 1 12.4076 10.6351 5.31753
176 3 10.6351 12.4076 5.31753
237 2 10.6351 10.6351 7.09003
238 3 12.4076 12.4076 7.09003
179 3 15.9526 10.6351 5.31753
180 1 14.1801 12.4076 5.31753
239 2 14.1801 10.6351 7.09003
240 1 15.9526 12.4076 7.09003
183 2 1.77251 14.1801 5.31753
184 1 0.0 15.9526 5.31753
241 1 0.0 14.1801 7.09003
242 3 1.77251 15.9526 7.09003
187 3 5.31753 14.1801 5.31753
188 3 3.54502 15.9526 5.31753
243 3 3.54502 14.1801 7.09003
244 1 5.31753 15.9526 7.09003
191 1 8.86254 14.1801 5.31753
192 2 7.09003 15.9526 5.31753
245 1 7.09003 14.1801 7.09003
246 1 8.86254 15.9526 7.09003
195 1 12.4076 14.1801 5.31753
196 3 10.6351 15.9526 5.31753
247 3 10.6351 14.1801 7.09003
248 1 12.4076 15.9526 7.09003
199 2 15.9526 14.1801 5.31753
200 3 14.1801 15.9526 5.31753
249 2 14.1801 14.1801 7.09003
250 3 15.9526 15.9526 7.09003
251 3 1.77251 0.0 8.86254
252 1 0.0 1.77251 8.86254
301 3 0.0 0.0 10.6351
302 2 1.77251 1.77251 10.6351
303 1 1.77251 0.0 12.4076
304 2 0.0 1.77251 12.4076
253 1 5.31753 0.0 8.86254
254 2 3.54502 1.77251 8.86254
305 1 3.54502 0.0 10.6351
306 1 5.31753 1.77251 10.6351
307 2 5.31753 0.0 12.4076
308 2 3.54502 1.77251 12.4076
255 2 8.86254 0.0 8.86254
256 3 7.09003 1.77251 8.86254
309 3 7.09003 0.0 10.6351
310 1 8.86254 1.77251 10.6351
311 1 8.86254 0.0 12.4076
312 1 7.09003 1.77251 12.4076
257 2 12.4076 0.0 8.86254
258 1 10.6351 1.77251 8.86254
313 2 10.6351 0.0 10.6351
314 2 12.4076 1.77251 10.6351
315 1 12.4076 0.0 12.4076
316 2 10.6351 1.77251 12.4076
259 2 15.9526 0.0 8.86254
260 1 14.1801 1.77251 8.86254
317 2 14.1801 0.0 10.6351
318 1 15.9526 1.77251 10.6351
319 2 15.9526 0.0 12.4076
320 3 14.1801 1.77251 12.4076
261 3 1.77251 3.54502 8.86254
262 1 0.0 5.31753 8.86254
321 1 0.0 3.54502 10.6351
322 3 1.77251 5.31753 10.6351
323 1 1.77251 3.54502 12.4076
324 3 0.0 5.31753 12.4076
263 3 5.31753 3.54502 8.86254
264 2 3.54502 5.31753 8.86254
325 1 3.54502 3.54502 10.6351
326 1 5.31753 5.31753 10.6351
327 1 5.31753 3.54502 12.4076
328 2 3.54502 5.31753 12.4076
265 3 8.86254 3.54502 8.86254
266 1 7.09003 5.31753 8.86254
329 3 7.09003 3.54502 10.6351
330 1 8.86254 5.31753 10.6351
331 1 8.86254 3.54502 12.4076
332 3 7.09003 5.31753 12.4076
267 2 12.4076 3.54502 8.86254
268 1 10.6351 5.31753 8.86254
333 2 10.6351 3.54502 10.6351
334 3 12.4076 5.31753 10.6351
335 2 12.4076 3.54502 12.4076
336 1 10.6351 5.31753 12.4076
269 3 15.9526 3.54502 8.86254
270 1 14.1801 5.31753 8.86254
337 3 14.1801 3.54502 10.6351
338 1 15.9526 5.31753 10.6351
339 3 15.9526 3.54502 12.4076
340 3 14.1801 5.31753 12.4076
271 1 1.77251 7.09003 8.86254
272 3 0.0 8.86254 8.86254
341 3 0.0 7.09003 10.6351
342 3 1.77251 8.86254 10.6351
343 2 1.77251 7.09003 12.4076
344 2 0.0 8.86254 12.4076
273 1 5.31753 7.09003 8.86254
274 3 3.54502 8.86254 8.86254
345 1 3.54502 7.09003 10.6351
346 2 5.31753 8.86254 10.6351
347 2 5.31753 7.09003 12.4076
348 3 3.54502 8.86254 12.4076
275 2 8.86254 7.09003 8.86254
276 2 7.09003 8.86254 8.86254
349 3 7.09003 7.09003 10.6351
350 1 8.86254 8.86254 10.6351
351 3 8.86254 7.09003 12.4076
352 2 7.09003 8.86254 12.4076
277 2 12.4076 7.09003 8.86254
278 2 10.6351 8.86254 8.86254
353 2 10.6351 7.09003 10.6351
354 1 12.4076 8.86254 10.6351
355 3 12.4076 7.09003 12.4076
356 1 10.6351 8.86254 12.4076
279 2 15.9526 7.09003 8.86254
280 1 14.1801 8.86254 8.86254
357 3 14.1801 7.09003 10.6351
358 2 15.9526 8.86254 10.6351
359 3 15.9526 7.09003 12.4076
360 3 14.1801 8.86254 12.4076
281 3 1.77251 10.6351 8.86254
282 1 0.0 12.4076 8.86254
361 1 0.0 10.6351 10.6351
362 2 1.77251 12.4076 10.6351
363 2 1.77251 10.6351 12.4076
364 1 0.0 12.4076 12.4076
283 1 5.31753 10.6351 8.86254
284 1 3.54502 12.4076 8.86254
365 1 3.54502 10.6351 10.6351
366 3 5.31753 12.4076 10.6351
367 1 5.31753 10.6351 12.4076
368 2 3.54502 12.4076 12.4076
285 3 8.86254 10.6351 8.86254
286 3 7.09003 12.4076 8.86254
369 2 7.09003 10.6351 10.6351
370 1 8.86254 12.4076 10.6351
371 2 8.86254 10.6351 12.4076
372 2 7.09003 12.4076 12.4076
287 1 12.4076 10.6351 8.86254
288 2 10.6351 12.4076 8.86254
373 3 10.6351 10.6351 10.6351
374 1 12.4076 12.4076 10.6351
375 2 12.4076 10.6351 12.4076
376 3 10.6351 12.4076 12.4076
289 2 15.9526 10.6351 8.86254
290 3 14.1801 12.4076 8.86254
377 2 14.1801 10.6351 10.6351
378 1 15.9526 12.4076 10.6351
379 2 15.9526 10.6351 12.4076
380 2 14.1801 12.4076 12.4076
291 2 1.77251 14.1801 8.86254
292 1 0.0 15.9526 8.86254
381 2 0.0 14.1801 10.6351
382 2 1.77251 15.9526 10.6351
383 1 1.77251 14.1801 12.4076
384 3 0.0 15.9526 12.4076
293 3 5.31753 14.1801 8.86254
294 2 3.54502 15.9526 8.86254
385 1 3.54502 14.1801 10.6351
386 2 5.31753 15.9526 10.6351
387 1 5.31753 14.1801 12.4076
388 2 3.54502 15.9526 12.4076
295 2 8.86254 14.1801 8.86254
296 2 7.09003 15.9526 8.86254
389 1 7.09003 14.1801 10.6351
390 1 8.86254 15.9526 10.6351
391 3 8.86254 14.1801 12.4076
392 1 7.09003 15.9526 12.4076
297 3 12.4076 14.1801 8.86254
298 3 10.6351 15.9526 8.86254
393 1 10.6351 14.1801 10.6351
394 1 12.4076 15.9526 10.6351
395 2 12.4076 14.1801 12.4076
396 2 10.6351 15.9526 12.4076
299 3 15.9526 14.1801 8.86254
300 2 14.1801 15.9526 8.86254
397 3 14.1801 14.1801 10.6351
398 1 15.9526 15.9526 10.6351
399 3 15.9526 14.1801 12.4076
400 2 14.1801 15.9526 12.4076
401 3 0.0 0.0 14.1801
402 1 1.77251 1.77251 14.1801
403 2 1.77251 0.0 15.9526
404 2 0.0 1.77251 15.9526
405 2 3.54502 0.0 14.1801
406 2 5.31753 1.77251 14.1801
407 3 5.31753 0.0 15.9526
408 2 3.54502 1.77251 15.9526
409 2 7.09003 0.0 14.1801
410 3 8.86254 1.77251 14.1801
411 1 8.86254 0.0 15.9526
412 1 7.09003 1.77251 15.9526
413 2 10.6351 0.0 14.1801
414 3 12.4076 1.77251 14.1801
415 1 12.4076 0.0 15.9526
416 3 10.6351 1.77251 15.9526
417 1 14.1801 0.0 14.1801
418 2 15.9526 1.77251 14.1801
419 2 15.9526 0.0 15.9526
420 2 14.1801 1.77251 15.9526
421 3 0.0 3.54502 14.1801
422 1 1.77251 5.31753 14.1801
423 3 1.77251 3.54502 15.9526
424 3 0.0 5.31753 15.9526
425 2 3.54502 3.54502 14.1801
426 3 5.31753 5.31753 14.1801
427 3 5.31753 3.54502 15.9526
428 1 3.54502 5.31753 15.9526
429 3 7.09003 3.54502 14.1801
430 3 8.86254 5.31753 14.1801
431 3 8.86254 3.54502 15.9526
432 3 7.09003 5.31753 15.9526
433 3 10.6351 3.54502 14.1801
434 1 12.4076 5.31753 14.1801
435 3 12.4076 3.54502 15.9526
436 1 10.6351 5.31753 15.9526
437 1 14.1801 3.54502 14.1801
438 3 15.9526 5.31753 14.1801
439 3 15.9526 3.54502 15.9526
440 3 14.1801 5.31753 15.9526
441 1 0.0 7.09003 14.1801
442 2 1.77251 8.86254 14.1801
443 1 1.77251 7.09003 15.9526
444 2 0.0 8.86254 15.9526
445 1 3.54502 7.09003 14.1801
446 2 5.31753 8.86254 14.1801
447 3 5.31753 7.09003 15.9526
448 3 3.54502 8.86254 15.9526
449 1 7.09003 7.09003 14.1801
450 2 8.86254 8.86254 14.1801
451 1 8.86254 7.09003 15.9526
452 3 7.09003 8.86254 15.9526
453 3 10.6351 7.09003 14.1801
454 1 12.4076 8.86254 14.1801
455 2 12.4076 7.09003 15.9526
456 1 10.6351 8.86254 15.9526
457 1 14.1801 7.09003 14.1801
458 2 15.9526 8.86254 14.1801
459 2 15.9526 7.09003 15.9526
460 1 14.1801 8.86254 15.9526
461 3 0.0 10.6351 14.1801
462 2 1.77251 12.4076 14.1801
463 3 1.77251 10.6351 15.9526
464 1 0.0 12.4076 15.9526
465 1 3.54502 10.6351 14.1801
466 2 5.31753 12.4076 14.1801
467 1 5.31753 10.6351 15.9526
468 2 3.54502 12.4076 15.9526
469 1 7.09003 10.6351 14.1801
470 1 8.86254 12.4076 14.1801
471 3 8.86254 10.6351 15.9526
472 2 7.09003 12.4076 15.9526
473 3 10.6351 10.6351 14.1801
474 2 12.4076 12.4076 14.1801
475 2 12.4076 10.6351 15.9526
476 3 10.6351 12.4076 15.9526
477 1 14.1801 10.6351 14.1801
478 1 15.9526 12.4076 14.1801
479 2 15.9526 10.6351 15.9526
480 3 14.1801 12.4076 15.9526
481 3 0.0 14.1801 14.1801
482 2 1.77251 15.9526 14.1801
483 2 1.77251 14.1801 15.9526
484 3 0.0 15.9526 15.9526
485 1 3.54502 14.1801 14.1801
486 3 5.31753 15.9526 14.1801
487 1 5.31753 14.1801 15.9526
488 2 3.54502 15.9526 15.9526
489 3 7.09003 14.1801 14.1801
490 3 8.86254 15.9526 14.1801
491 3 8.86254 14.1801 15.9526
492 3 7.09003 15.9526 15.9526
493 1 10.6351 14.1801 14.1801
494 3 12.4076 15.9526 14.1801
495 2 12.4076 14.1801 15.9526
496 2 10.6351 15.9526 15.9526
497 1 14.1801 14.1801 14.1801
498 3 15.9526 15.9526 14.1801
499 3 15.9526 14.1801 15.9526
500 2 14.1801 15.9526 15.9526
501 1 0.0 0.0 17.7251
502 1 1.77251 1.77251 17.7251
503 2 1.77251 0.0 19.4976
504 2 0.0 1.77251 19.4976
601 1 0.0 0.0 21.2701
602 1 1.77251 1.77251 21.2701
505 1 3.54502 0.0 17.7251
506 3 5.31753 1.77251 17.7251
507 1 5.31753 0.0 19.4976
508 3 3.54502 1.77251 19.4976
605 1 3.54502 0.0 21.2701
606 3 5.31753 1.77251 21.2701
509 2 7.09003 0.0 17.7251
510 2 8.86254 1.77251 17.7251
511 1 8.86254 0.0 19.4976
512 3 7.09003 1.77251 19.4976
609 2 7.09003 0.0 21.2701
610 3 8.86254 1.77251 21.2701
513 1 10.6351 0.0 17.7251
514 1 12.4076 1.77251 17.7251
515 2 12.4076 0.0 19.4976
516 2 10.6351 1.77251 19.4976
613 3 10.6351 0.0 21.2701
614 2 12.4076 1.77251 21.2701
517 1 14.1801 0.0 17.7251
518 2 15.9526 1.77251 17.7251
519 1 15.9526 0.0 19.4976
520 3 14.1801 1.77251 19.4976
617 1 14.1801 0.0 21.2701
618 2 15.9526 1.77251 21.2701
521 3 0.0 3.54502 17.7251
522 2 1.77251 5.31753 17.7251
523 3 1.77251 3.54502 19.4976
524 3 0.0 5.31753 19.4976
621 1 0.0 3.54502 21.2701
622 3 1.77251 5.31753 21.2701
525 3 3.54502 3.54502 17.7251
526 3 5.31753 5.31753 17.7251
527 1 5.31753 3.54502 19.4976
528 1 3.54502 5.31753 19.4976
625 2 3.54502 3.54502 21.2701
626 2 5.31753 5.31753 21.2701
529 1 7.09003 3.54502 17.7251
530 3 8.86254 5.31753 17.7251
531 1 8.86254 3.54502 19.4976
532 1 7.09003 5.31753 19.4976
629 3 7.09003 3.54502 21.2701
630 2 8.86254 5.31753 21.2701
533 1 10.6351 3.54502 17.7251
534 3 12.4076 5.31753 17.7251
535 2 12.4076 3.54502 19.4976
536 2 10.6351 5.31753 19.4976
633 1 10.6351 3.54502 21.2701
634 3 12.4076 5.31753 21.2701
537 1 14.1801 3.54502 17.7251
538 3 15.9526 5.31753 17.7251
539 1 15.9526 3.54502 19.4976
540 2 14.1801 5.31753 19.4976
637 1 14.1801 3.54502 21.2701
638 3 15.9526 5.31753 21.2701
541 2 0.0 7.09003 17.7251
542 2 1.77251 8.86254 17.7251
543 3 1.77251 7.09003 19.4976
544 1 0.0 8.86254 19.4976
641 3 0.0 7.09003 21.2701
642 3 1.77251 8.86254 21.2701
545 3 3.54502 7.09003 17.7251
546 3 5.31753 8.86254 17.7251
547 1 5.31753 7.09003 19.4976
548 1 3.54502 8.86254 19.4976
645 2 3.54502 7.09003 21.2701
646 2 5.31753 8.86254 21.2701
549 2 7.09003 7.09003 17.7251
550 3 8.86254 8.86254 17.7251
551 1 8.86254 7.09003 19.4976
552 3 7.09003 8.86254 19.4976
649 3 7.09003 7.09003 21.2701
650 1 8.86254 8.86254 21.2701
553 2 10.6351 7.09003 17.7251
554 2 12.4076 8.86254 17.7251
555 1 12.4076 7.09003 19.4976
556 3 10.6351 8.86254 19.4976
653 2 10.6351 7.09003 21.2701
654 3 12.4076 8.86254 21.2701
557 3 14.1801 7.09003 17.7251
558 2 15.9526 8.86254 17.7251
559 3 15.9526 7.09003 19.4976
560 1 14.1801 8.86254 19.4976
657 3 14.1801 7.09003 21.2701
658 2 15.9526 8.86254 21.2701
561 1 0.0 10.6351 17.7251
562 2 1.77251 12.4076 17.7251
563 2 1.77251 10.6351 19.4976
564 3 0.0 12.4076 19.4976
661 3 0.0 10.6351 21.2701
662 1 1.77251 12.4076 21.2701
565 1 3.54502 10.6351 17.7251
566 3 5.31753 12.4076 17.7251
567 3 5.31753 10.6351 19.4976
568 3 3.54502 12.4076 19.4976
665 1 3.54502 10.6351 21.2701
666 3 5.31753 12.4076 21.2701
569 3 7.09003 10.6351 17.7251
570 1 8.86254 12.4076 17.7251
571 3 8.86254 10.6351 19.4976
572 1 7.09003 12.4076 19.4976
669 2 7.09003 10.6351 21.2701
670 3 8.86254 12.4076 21.2701
573 3 10.6351 10.6351 17.7251
574 1 12.4076 12.4076 17.7251
575 3 12.4076 10.6351 19.4976
576 1 10.6351 12.4076 19.4976
673 3 10.6351 10.6351 21.2701
674 3 12.4076 12.4076 21.2701
577 2 14.1801 10.6351 17.7251
578 3 15.9526 12.4076 17.7251
579 3 15.9526 10.6351 19.4976
580 1 14.1801 12.4076 19.4976
677 3 14.1801 10.6351 21.2701
678 1 15.9526 12.4076 21.2701
581 1 0.0 14.1801 17.7251
582 3 1.77251 15.9526 17.7251
583 2 1.77251 14.1801 19.4976
584 1 0.0 15.9526 19.4976
681 3 0.0 14.1801 21.2701
682 2 1.77251 15.9526 21.2701
585 1 3.54502 14.1801 17.7251
586 2 5.31753 15.9526 17.7251
587 2 5.31753 14.1801 19.4976
588 3 3.54502 15.9526 19.4976
685 2 3.54502 14.1801 21.2701
686 1 5.31753 15.9526 21.2701
589 2 7.09003 14.1801 17.7251
590 1 8.86254 15.9526 17.7251
591 3 8.86254 14.1801 19.4976
592 3 7.09003 15.9526 19.4976
689 2 7.09003 14.1801 21.2701
690 2 8.86254 15.9526 21.2701
593 1 10.6351 14.1801 17.7251
594 3 12.4076 15.9526 17.7251
595 3 12.4076 14.1801 19.4976
596 3 10.6351 15.9526 19.4976
693 1 10.6351 14.1801 21.2701
694 1 12.4076 15.9526 21.2701
597 1 14.1801 14.1801 17.7251
598 3 15.9526 15.9526 17.7251
599 3 15.9526 14.1801 19.4976
600 1 14.1801 15.9526 19.4976
697 3 14.1801 14.1801 21.2701
698 1 15.9526 15.9526 21.2701
603 2 1.77251 0.0 23.0426
604 2 0.0 1.77251 23.0426
701 1 0.0 0.0 24.8151
702 2 1.77251 1.77251 24.8151
607 3 5.31753 0.0 23.0426
608 1 3.54502 1.77251 23.0426
703 3 3.54502 0.0 24.8151
704 1 5.31753 1.77251 24.8151
611 1 8.86254 0.0 23.0426
612 1 7.09003 1.77251 23.0426
705 3 7.09003 0.0 24.8151
706 3 8.86254 1.77251 24.8151
615 1 12.4076 0.0 23.0426
616 3 10.6351 1.77251 23.0426
707 3 10.6351 0.0 24.8151
708 1 12.4076 1.77251 24.8151
619 2 15.9526 0.0 23.0426
620 3 14.1801 1.77251 23.0426
709 2 14.1801 0.0 24.8151
710 3 15.9526 1.77251 24.8151
623 3 1.77251 3.54502 23.0426
624 1 0.0 5.31753 23.0426
711 1 0.0 3.54502 24.8151
712 2 1.77251 5.31753 24.8151
627 3 5.31753 3.54502 23.0426
628 1 3.54502 5.31753 23.0426
713 3 3.54502 3.54502 24.8151
714 2 5.31753 5.31753 24.8151
631 2 8.86254 3.54502 23.0426
632 1 7.09003 5.31753 23.0426
715 2 7.09003 3.54502 24.8151
716 1 8.86254 5.31753 24.8151
635 2 12.4076 3.54502 23.0426
636 1 10.6351 5.31753 23.0426
717 2 10.6351 3.54502 24.8151
718 1 12.4076 5.31753 24.8151
639 1 15.9526 3.54502 23.0426
640 2 14.1801 5.31753 23.0426
719 3 14.1801 3.54502 24.8151
720 1 15.9526 5.31753 24.8151
643 2 1.77251 7.09003 23.0426
644 1 0.0 8.86254 23.0426
721 2 0.0 7.09003 24.8151
722 1 1.77251 8.86254 24.8151
647 2 5.31753 7.09003 23.0426
648 2 3.54502 8.86254 23.0426
723 1 3.54502 7.09003 24.8151
724 3 5.31753 8.86254 24.8151
651 2 8.86254 7.09003 23.0426
652 1 7.09003 8.86254 23.0426
725 2 7.09003 7.09003 24.8151
726 3 8.86254 8.86254 24.8151
655 3 12.4076 7.09003 23.0426
656 1 10.6351 8.86254 23.0426
727 3 10.6351 7.09003 24.8151
728 3 12.4076 8.86254 24.8151
659 1 15.9526 7.09003 23.0426
660 3 14.1801 8.86254 23.0426
729 1 14.1801 7.09003 24.8151
730 2 15.9526 8.86254 24.8151
663 3 1.77251 10.6351 23.0426
664 3 0.0 12.4076 23.0426
731 2 0.0 10.6351 24.8151
732 3 1.77251 12.4076 24.8151
667 1 5.31753 10.6351 23.0426
668 3 3.54502 12.4076 23.0426
733 2 3.54502 10.6351 24.8151
734 1 5.31753 12.4076 24.8151
671 3 8.86254 10.6351 23.0426
672 1 7.09003 12.4076 23.0426
735 3 7.09003 10.6351 24.8151
736 2 8.86254 12.4076 24.8151
675 3 12.4076 10.6351 23.0426
676 3 10.6351 12.4076 23.0426
737 3 10.6351 10.6351 24.8151
738 3 12.4076 12.4076 24.8151
679 3 15.9526 10.6351 23.0426
680 3 14.1801 12.4076 23.0426
739 1 14.1801 10.6351 24.8151
740 1 15.9526 12.4076 24.8151
683 1 1.77251 14.1801 23.0426
684 2 0.0 15.9526 23.0426
741 1 0.0 14.1801 24.8151
742 2 1.77251 15.9526 24.8151
687 3 5.31753 14.1801 23.0426
688 2 3.54502 15.9526 23.0426
743 1 3.54502 14.1801 24.8151
744 3 5.31753 15.9526 24.8151
691 1 8.86254 14.1801 23.0426
692 2 7.09003 15.9526 23.0426
745 3 7.09003 14.1801 24.8151
746 3 8.86254 15.9526 24.8151
695 1 12.4076 14.1801 23.0426
696 3 10.6351 15.9526 23.0426
747 2 10.6351 14.1801 24.8151
748 1 12.4076 15.9526 24.8151
699 1 15.9526 14.1801 23.0426
700 3 14.1801 15.9526 23.0426
749 2 14.1801 14.1801 24.8151
750 1 15.9526 15.9526 24.8151
751 2 1.77251 0.0 26.5876
752 3 0.0 1.77251 26.5876
801 2 0.0 0.0 28.3601
802 3 1.77251 1.77251 28.3601
803 1 1.77251 0.0 30.1326
804 1 0.0 1.77251 30.1326
753 3 5.31753 0.0 26.5876
754 1 3.54502 1.77251 26.5876
805 2 3.54502 0.0 28.3601
806 3 5.31753 1.77251 28.3601
807 2 5.31753 0.0 30.1326
808 2 3.54502 1.77251 30.1326
755 1 8.86254 0.0 26.5876
756 2 7.09003 1.77251 26.5876
809 1 7.09003 0.0 28.3601
810 2 8.86254 1.77251 28.3601
811 3 8.86254 0.0 30.1326
812 1 7.09003 1.77251 30.1326
757 3 12.4076 0.0 26.5876
758 3 10.6351 1.77251 26.5876
813 3 10.6351 0.0 28.3601
814 1 12.4076 1.77251 28.3601
815 2 12.4076 0.0 30.1326
816 2 10.6351 1.77251 30.1326
759 1 15.9526 0.0 26.5876
760 3 14.1801 1.77251 26.5876
817 3 14.1801 0.0 28.3601
818 1 15.9526 1.77251 28.3601
819 2 15.9526 0.0 30.1326
820 2 14.1801 1.77251 30.1326
761 1 1.77251 3.54502 26.5876
762 3 0.0 5.31753 26.5876
821 2 0.0 3.54502 28.3601
822 1 1.77251 5.31753 28.3601
823 1 1.77251 3.54502 30.1326
824 3 0.0 5.31753 30.1326
763 3 5.31753 3.54502 26.5876
764 3 3.54502 5.31753 26.5876
825 3 3.54502 3.54502 28.3601
826 2 5.31753 5.31753 28.3601
827 1 5.31753 3.54502 30.1326
828 3 3.54502 5.31753 30.1326
765 3 8.86254 3.54502 26.5876
766 1 7.09003 5.31753 26.5876
829 1 7.09003 3.54502 28.3601
830 3 8.86254 5.31753 28.3601
831 2 8.86254 3.54502 30.1326
832 3 7.09003 5.31753 30.1326
767 3 12.4076 3.54502 26.5876
768 3 10.6351 5.31753 26.5876
833 1 10.6351 3.54502 28.3601
834 3 12.4076 5.31753 28.3601
835 3 12.4076 3.54502 30.1326
836 3 10.6351 5.31753 30.1326
769 1 15.9526 3.54502 26.5876
770 3 14.1801 5.31753 26.5876
837 3 14.1801 3.54502 28.3601
838 3 15.9526 5.31753 28.3601
839 3 15.9526 3.54502 30.1326
840 3 14.1801 5.31753 30.1326
771 2 1.77251 7.09003 26.5876
772 2 0.0 8.86254 26.5876
841 1 0.0 7.09003 28.3601
842 2 1.77251 8.86254 28.3601
843 3 1.77251 7.09003 30.1326
844 1 0.0 8.86254 30.1326
773 2 5.31753 7.09003 26.5876
774 3 3.54502 8.86254 26.5876
845 1 3.54502 7.09003 28.3601
846 3 5.31753 8.86254 28.3601
847 2 5.31753 7.09003 30.1326
848 1 3.54502 8.86254 30.1326
775 3 8.86254 7.09003 26.5876
776 1 7.09003 8.86254 26.5876
849 1 7.09003 7.09003 28.3601
850 2 8.86254 8.86254 28.3601
851 3 8.86254 7.09003 30.1326
852 2 7.09003 8.86254 30.1326
777 3 12.4076 7.09003 26.5876
778 1 10.6351 8.86254 26.5876
853 1 10.6351 7.09003 28.3601
854 2 12.4076 8.86254 28.3601
855 3 12.4076 7.09003 30.1326
856 2 10.6351 8.86254 30.1326
779 3 15.9526 7.09003 26.5876
780 3 14.1801 8.86254 26.5876
857 1 14.1801 7.09003 28.3601
858 3 15.9526 8.86254 28.3601
859 2 15.9526 7.09003 30.1326
860 1 14.1801 8.86254 30.1326
781 1 1.77251 10.6351 26.5876
782 2 0.0 12.4076 26.5876
861 2 0.0 10.6351 28.3601
862 3 1.77251 12.4076 28.3601
863 3 1.77251 10.6351 30.1326
864 3 0.0 12.4076 30.1326
783 3 5.31753 10.6351 26.5876
784 1 3.54502 12.4076 26.5876
865 2 3.54502 10.6351 28.3601
866 1 5.31753 12.4076 28.3601
867 2 5.31753 10.6351 30.1326
868 2 3.54502 12.4076 30.1326
785 1 8.86254 10.6351 26.5876
786 3 7.09003 12.4076 26.5876
869 3 7.09003 10.6351 28.3601
870 2 8.86254 12.4076 28.3601
871 1 8.86254 10.6351 30.1326
872 2 7.09003 12.4076 30.1326
787 3 12.4076 10.6351 26.5876
788 1 10.6351 12.4076 26.5876
873 2 10.6351 10.6351 28.3601
874 2 12.4076 12.4076 28.3601
875 1 12.4076 10.6351 30.1326
876 3 10.6351 12.4076 30.1326
789 2 15.9526 10.6351 26.5876
790 2 14.1801 12.4076 26.5876
877 1 14.1801 10.6351 28.3601
878 2 15.9526 12.4076 28.3601
879 3 15.9526 10.6351 30.1326
880 2 14.1801 12.4076 30.1326
791 2 1.77251 14.1801 26.5876
792 2 0.0 15.9526 26.5876
881 3 0.0 14.1801 28.3601
882 3 1.77251 15.9526 28.3601
883 1 1.77251 14.1801 30.1326
884 3 0.0 15.9526 30.1326
793 3 5.31753 14.1801 26.5876
794 3 3.54502 15.9526 26.5876
885 3 3.54502 14.1801 28.3601
886 1 5.31753 15.9526 28.3601
887 2 5.31753 14.1801 30.1326
888 1 3.54502 15.9526 30.1326
795 1 8.86254 14.1801 26.5876
796 1 7.09003 15.9526 26.5876
889 2 7.09003 14.1801 28.3601
890 3 8.86254 15.9526 28.3601
891 1 8.86254 14.1801 30.1326
892 3 7.09003 15.9526 30.1326
797 1 12.4076 14.1801 26.5876
798 3 10.6351 15.9526 26.5876
893 3 10.6351 14.1801 28.3601
894 3 12.4076 15.9526 28.3601
895 2 12.4076 14.1801 30.1326
896 1 10.6351 15.9526 30.1326
799 3 15.9526 14.1801 26.5876
800 3 14.1801 15.9526 26.5876
897 1 14.1801 14.1801 28.3601
898 3 15.9526 15.9526 28.3601
899 2 15.9526 14.1801 30.1326
900 3 14.1801 15.9526 30.1326
901 3 0.0 0.0 31.9052
902 3 1.77251 1.77251 31.9052
903 3 1.77251 0.0 33.6777
904 3 0.0 1.77251 33.6777
905 1 3.54502 0.0 31.9052
906 2 5.31753 1.77251 31.9052
907 2 5.31753 0.0 33.6777
908 2 3.54502 1.77251 33.6777
909 1 7.09003 0.0 31.9052
910 3 8.86254 1.77251 31.9052
911 2 8.86254 0.0 33.6777
912 3 7.09003 1.77251 33.6777
913 2 10.6351 0.0 31.9052
914 1 12.4076 1.77251 31.9052
915 2 12.4076 0.0 33.6777
916 1 10.6351 1.77251 33.6777
917 1 14.1801 0.0 31.9052
918 1 15.9526 1.77251 31.9052
919 3 15.9526 0.0 33.6777
920 3 14.1801 1.77251 33.6777
921 1 0.0 3.54502 31.9052
922 2 1.77251 5.31753 31.9052
923 1 1.77251 3.54502 33.6777
924 2 0.0 5.31753 33.6777
925 2 3.54502 3.54502 31.9052
926 1 5.31753 5.31753 31.9052
927 1 5.31753 3.54502 33.6777
928 3 3.54502 5.31753 33.6777
929 2 7.09003 3.54502 31.9052
930 1 8.86254 5.31753 31.9052
931 1 8.86254 3.54502 33.6777
932 2 7.09003 5.31753 33.6777
933 3 10.6351 3.54502 31.9052
934 1 12.4076 5.31753 31.9052
935 1 12.4076 3.54502 33.6777
936 3 10.6351 5.31753 33.6777
937 3 14.1801 3.54502 31.9052
938 1 15.9526 5.31753 31.9052
939 2 15.9526 3.54502 33.6777
940 2 14.1801 5.31753 33.6777
941 1 0.0 7.09003 31.9052
942 2 1.77251 8.86254 31.9052
943 3 1.77251 7.09003 33.6777
944 2 0.0 8.86254 33.6777
945 1 3.54502 7.09003 31.9052
946 3 5.31753 8.86254 31.9052
947 1 5.31753 7.09003 33.6777
948 3 3.54502 8.86254 33.6777
949 2 7.09003 7.09003 31.9052
950 3 8.86254 8.86254 31.9052
951 1 8.86254 7.09003 33.6777
952 2 7.09003 8.86254 33.6777
953 3 10.6351 7.09003 31.9052
954 1 12.4076 8.86254 31.9052
955 3 12.4076 7.09003 33.6777
956 2 10.6351 8.86254 33.6777
957 3 14.1801 7.09003 31.9052
958 1 15.9526 8.86254 31.9052
959 2 15.9526 7.09003 33.6777
960 2 14.1801 8.86254 33.6777
961 1 0.0 10.6351 31.9052
962 3 1.77251 12.4076 31.9052
963 3 1.77251 10.6351 33.6777
964 3 0.0 12.4076 33.6777
965 1 3.54502 10.6351 31.9052
966 3 5.31753 12.4076 31.9052
967 2 5.31753 10.6351 33.6777
968 3 3.54502 12.4076 33.6777
969 1 7.09003 10.6351 31.9052
970 2 8.86254 12.4076 31.9052
971 1 8.86254 10.6351 33.6777
972 2 7.09003 12.4076 33.6777
973 3 10.6351 10.6351 31.9052
974 2 12.4076 12.4076 31.9052
975 1 12.4076 10.6351 33.6777
976 1 10.6351 12.4076 33.6777
977 2 14.1801 10.6351 31.9052
978 1 15.9526 12.4076 31.9052
979 2 15.9526 10.6351 33.6777
980 1 14.1801 12.4076 33.6777
981 1 0.0 14.1801 31.9052
982 2 1.77251 15.9526 31.9052
983 1 1.77251 14.1801 33.6777
984 2 0.0 15.9526 33.6777
985 2 3.54502 14.1801 31.9052
986 3 5.31753 15.9526 31.9052
987 3 5.31753 14.1801 33.6777
988 3 3.54502 15.9526 33.6777
989 1 7.09003 14.1801 31.9052
990 3 8.86254 15.9526 31.9052
991 3 8.86254 14.1801 33.6777
992 3 7.09003 15.9526 33.6777
993 2 10.6351 14.1801 31.9052
994 1 12.4076 15.9526 31.9052
995 1 12.4076 14.1801 33.6777
996 2 10.6351 15.9526 33.6777
997 2 14.1801 14.1801 31.9052
998 2 15.9526 15.9526 31.9052
999 3 15.9526 14.1801 33.6777
1000 2 14.1801 15.9526 33.6777
1001 1 0.0 0.0 35.4502
1002 1 1.77251 1.77251 35.4502
1003 3 1.77251 0.0 37.2227
1004 2 0.0 1.77251 37.2227
1101 3 0.0 0.0 38.9952
1102 1 1.77251 1.77251 38.9952
1005 2 3.54502 0.0 35.4502
1006 1 5.31753 1.77251 35.4502
1007 3 5.31753 0.0 37.2227
1008 2 3.54502 1.77251 37.2227
1105 1 3.54502 0.0 38.9952
1106 2 5.31753 1.77251 38.9952
1009 1 7.09003 0.0 35.4502
1010 2 8.86254 1.77251 35.4502
1011 2 8.86254 0.0 37.2227
1012 2 7.09003 1.77251 37.2227
1109 2 7.09003 0.0 38.9952
1110 1 8.86254 1.77251 38.9952
1013 3 10.6351 0.0 35.4502
1014 3 12.4076 1.77251 35.4502
1015 1 12.4076 0.0 37.2227
1016 3 10.6351 1.77251 37.2227
1113 3 10.6351 0.0 38.9952
1114 3 12.4076 1.77251 38.9952
1017 3 14.1801 0.0 35.4502
1018 1 15.9526 1.77251 35.4502
1019 1 15.9526 0.0 37.2227
1020 3 14.1801 1.77251 37.2227
1117 1 14.1801 0.0 38.9952
1118 2 15.9526 1.77251 38.9952
1021 1 0.0 3.54502 35.4502
1022 3 1.77251 5.31753 35.4502
1023 3 1.77251 3.54502 37.2227